<UPF version="2.0.1">
  <PP_INFO>
    Generated by new atomic code, or converted to UPF format
    Author: 
    Generation date: 
    Pseudopotential type: US
    Element: Ag
    Functional:  SLA  PZ   NOGX NOGC
    Suggested minimum cutoff for wavefunctions:   0. Ry
    Suggested minimum cutoff for charge density:   0. Ry
    The Pseudo was generated with a Non-Relativistic Calculation
    L component and cutoff radius for Local Potential:  0   0.0000
    Valence configuration: 
    nl pn  l   occ       Rcut    Rcut US       E pseu
    4S  1  0  2.00      0.000      0.000     0.000000
    4P  2  1  6.00      0.000      0.000     0.000000
    4D  3  2 10.00      0.000      0.000     0.000000
    5S  1  0  0.50      0.000      0.000     0.000000
    5P  2  1  0.00      0.000      0.000     0.000000
    Generation configuration: not available.
  </PP_INFO>
    <!-- END OF HUMAN READABLE SECTION -->
  <PP_HEADER generated="Generated by new atomic code, or converted to UPF format" author="" date="" comment="" element="Ag" pseudo_type="US" relativistic="no" is_ultrasoft="true" is_paw="false" is_coulomb="false" has_so="false" has_wfc="false" has_gipaw="false" paw_as_gipaw="false" core_correction="true" functional=" SLA  PZ   NOGX NOGC" z_valence="19.000000000000000" total_psenergy="-295.20667856400001" wfc_cutoff="0.0000000000000000" rho_cutoff="0.0000000000000000" l_max="2" l_max_rho="0" l_local="0" mesh_size="887" number_of_wfc="5" number_of_proj="6"/>
  <PP_MESH>
    <PP_R>
   0.000000000000000E+00   1.217457688570000E-09   2.465735465250000E-09
   3.745613544300000E-09   5.057891891180000E-09   6.403390722570000E-09
   7.782951019049999E-09   9.197435050700000E-09   1.064772691610000E-08
   1.213473309480000E-08   1.365938301420000E-08   1.522262963010000E-08
   1.682545002250000E-08   1.846884600620000E-08   2.015384475740000E-08
   2.188149945500000E-08   2.365288993950000E-08   2.546912338770000E-08
   2.733133500440000E-08   2.924068873270000E-08   3.119837798080000E-08
   3.320562636810000E-08   3.526368849030000E-08   3.737385070310000E-08
   3.953743192670000E-08   4.175578446970000E-08   4.403029487470000E-08
   4.636238478480000E-08   4.875351183200000E-08   5.120517054850000E-08
   5.371889330100000E-08   5.629625124790000E-08   5.893885532190000E-08
   6.164835723650000E-08   6.442645051870000E-08   6.727487156710000E-08
   7.019540073760001E-08   7.318986345610001E-08   7.626013135930000E-08
   7.940812346440000E-08   8.263580736909999E-08   8.594520048080001E-08
   8.933837127810000E-08   9.281744060300000E-08   9.638458298720000E-08
   1.000420280110000E-07   1.037920616960000E-07   1.076370279360000E-07
   1.115793299590000E-07   1.156214318340000E-07   1.197658600050000E-07
   1.240152048740000E-07   1.283721224210000E-07   1.328393358600000E-07
   1.374196373470000E-07   1.421158897170000E-07   1.469310282820000E-07
   1.518680626610000E-07   1.569300786590000E-07   1.621202402030000E-07
   1.674417913120000E-07   1.728980581280000E-07   1.784924509970000E-07
   1.842284665950000E-07   1.901096901190000E-07   1.961397975260000E-07
   2.023225578290000E-07   2.086618354540000E-07   2.151615926550000E-07
   2.218258919940000E-07   2.286588988740000E-07   2.356648841470000E-07
   2.428482267810000E-07   2.502134166000000E-07   2.577650570860000E-07
   2.655078682620000E-07   2.734466896360000E-07   2.815864832290000E-07
   2.899323366790000E-07   2.984894664140000E-07   3.072632209210000E-07
   3.162590840790000E-07   3.254826785980000E-07   3.349397695240000E-07
   3.446362678470000E-07   3.545782341930000E-07   3.647718826150000E-07
   3.752235844760000E-07   3.859398724300000E-07   3.969274445040000E-07
   4.081931682900000E-07   4.197440852310000E-07   4.315874150260000E-07
   4.437305601430000E-07   4.561811104420000E-07   4.689468479220000E-07
   4.820357515860000E-07   4.954560024230000E-07   5.092159885270000E-07
   5.233243103380000E-07   5.377897860160000E-07   5.526214569550000E-07
   5.678285934300000E-07   5.834207003990000E-07   5.994075234350000E-07
   6.157990548220000E-07   6.326055398020000E-07   6.498374829750000E-07
   6.675056548670000E-07   6.856210986590000E-07   7.041951370940000E-07
   7.232393795510000E-07   7.427657293010000E-07   7.627863909480000E-07
   7.833138780580000E-07   8.043610209780000E-07   8.259409748580000E-07
   8.480672278710000E-07   8.707536096460000E-07   8.940142999100000E-07
   9.178638373510000E-07   9.423171287070000E-07   9.673894580810000E-07
   9.930964964950000E-07   1.019454311680000E-06   1.046479378140000E-06
   1.074188587420000E-06   1.102599258660000E-06   1.131729149470000E-06
   1.161596466980000E-06   1.192219879230000E-06   1.223618526850000E-06
   1.255812035030000E-06   1.288820525740000E-06   1.322664630370000E-06
   1.357365502590000E-06   1.392944831570000E-06   1.429424855560000E-06
   1.466828375740000E-06   1.505178770550000E-06   1.544500010230000E-06
   1.584816671830000E-06   1.626153954570000E-06   1.668537695610000E-06
   1.711994386160000E-06   1.756551188070000E-06   1.802235950800000E-06
   1.849077228790000E-06   1.897104299390000E-06   1.946347181060000E-06
   1.996836652220000E-06   2.048604270430000E-06   2.101682392130000E-06
   2.156104192880000E-06   2.211903688070000E-06   2.269115754210000E-06
   2.327776150700000E-06   2.387921542200000E-06   2.449589521530000E-06
   2.512818633200000E-06   2.577648397440000E-06   2.644119334980000E-06
   2.712272992310000E-06   2.782151967700000E-06   2.853799937770000E-06
   2.927261684830000E-06   3.002583124880000E-06   3.079811336260000E-06
   3.158994589120000E-06   3.240182375570000E-06   3.323425440610000E-06
   3.408775813880000E-06   3.496286842140000E-06   3.586013222630000E-06
   3.678011037250000E-06   3.772337787640000E-06   3.869052431080000E-06
   3.968215417370000E-06   4.069888726620000E-06   4.174135907940000E-06
   4.281022119230000E-06   4.390614167830000E-06   4.502980552350000E-06
   4.618191505450000E-06   4.736319037700000E-06   4.857436982670000E-06
   4.981621043010000E-06   5.108948837810000E-06   5.239499951080000E-06
   5.373355981520000E-06   5.510600593500000E-06   5.651319569380000E-06
   5.795600863090000E-06   5.943534655140000E-06   6.095213408960000E-06
   6.250731928720000E-06   6.410187418550000E-06   6.573679543320000E-06
   6.741310490940000E-06   6.913185036200000E-06   7.089410606290000E-06
   7.270097347920000E-06   7.455358196200000E-06   7.645308945180000E-06
   7.840068320260000E-06   8.039758052390000E-06   8.244502954170000E-06
   8.454430997799999E-06   8.669673395170000E-06   8.890364679760000E-06
   9.116642790820000E-06   9.348649159540000E-06   9.586528797440000E-06
   9.830430387050000E-06   1.008050637480000E-05   1.033691306630000E-05
   1.059981072410000E-05   1.086936366780000E-05   1.114574037680000E-05
   1.142911359540000E-05   1.171966044130000E-05   1.201756251560000E-05
   1.232300601670000E-05   1.263618185700000E-05   1.295728578130000E-05
   1.328651849020000E-05   1.362408576490000E-05   1.397019859570000E-05
   1.432507331460000E-05   1.468893172980000E-05   1.506200126460000E-05
   1.544451509960000E-05   1.583671231850000E-05   1.623883805720000E-05
   1.665114365750000E-05   1.707388682380000E-05   1.750733178420000E-05
   1.795174945610000E-05   1.840741761490000E-05   1.887462106800000E-05
   1.935365183290000E-05   1.984480931940000E-05   2.034840051670000E-05
   2.086474018600000E-05   2.139415105620000E-05   2.193696402640000E-05
   2.249351837240000E-05   2.306416195870000E-05   2.364925145610000E-05
   2.424915256470000E-05   2.486424024220000E-05   2.549489893840000E-05
   2.614152283550000E-05   2.680451609440000E-05   2.748429310760000E-05
   2.818127875790000E-05   2.889590868380000E-05   2.962862955250000E-05
   3.037989933830000E-05   3.115018760930000E-05   3.193997582070000E-05
   3.274975761580000E-05   3.358003913470000E-05   3.443133933030000E-05
   3.530419029290000E-05   3.619913758290000E-05   3.711674057140000E-05
   3.805757279010000E-05   3.902222228980000E-05   4.001129200790000E-05
   4.102540014510000E-05   4.206518055200000E-05   4.313128312530000E-05
   4.422437421370000E-05   4.534513703470000E-05   4.649427210160000E-05
   4.767249766130000E-05   4.888055014290000E-05   5.011918461880000E-05
   5.138917527570000E-05   5.269131589910000E-05   5.402642036940000E-05
   5.539532317020000E-05   5.679887991050000E-05   5.823796785880000E-05
   5.971348649190000E-05   6.122635805700000E-05   6.277752814820000E-05
   6.436796629720000E-05   6.599866657960000E-05   6.767064823620000E-05
   6.938495631000000E-05   7.114266229920000E-05   7.294486482750000E-05
   7.479269032990000E-05   7.668729375760000E-05   7.862985929950000E-05
   8.062160112220000E-05   8.266376412910001E-05   8.475762473880000E-05
   8.690449168210000E-05   8.910570682080000E-05   9.136264598610000E-05
   9.367671983830000E-05   9.604937474910000E-05   9.848209370480001E-05
   1.009763972340000E-04   1.035338443580000E-04   1.061560335640000E-04
   1.088446038060000E-04   1.116012355270000E-04   1.144276517130000E-04
   1.173256189650000E-04   1.202969486070000E-04   1.233434978180000E-04
   1.264671707890000E-04   1.296699199170000E-04   1.329537470260000E-04
   1.363207046140000E-04   1.397728971390000E-04   1.433124823340000E-04
   1.469416725540000E-04   1.506627361630000E-04   1.544779989450000E-04
   1.583898455640000E-04   1.624007210520000E-04   1.665131323370000E-04
   1.707296498080000E-04   1.750529089280000E-04   1.794856118730000E-04
   1.840305292280000E-04   1.886905017130000E-04   1.934684419640000E-04
   1.983673363470000E-04   2.033902468330000E-04   2.085403129020000E-04
   2.138207535150000E-04   2.192348691190000E-04   2.247860437120000E-04
   2.304777469580000E-04   2.363135363580000E-04   2.422970594700000E-04
   2.484320561910000E-04   2.547223610940000E-04   2.611719058230000E-04
   2.677847215540000E-04   2.745649415120000E-04   2.815168035560000E-04
   2.886446528250000E-04   2.959529444580000E-04   3.034462463740000E-04
   3.111292421320000E-04   3.190067338530000E-04   3.270836452260000E-04
   3.353650245840000E-04   3.438560480590000E-04   3.525620228160000E-04
   3.614883903740000E-04   3.706407300020000E-04   3.800247622110000E-04
   3.896463523260000E-04   3.995115141550000E-04   4.096264137440000E-04
   4.199973732360000E-04   4.306308748170000E-04   4.415335647720000E-04
   4.527122576380000E-04   4.641739404600000E-04   4.759257771650000E-04
   4.879751130320000E-04   5.003294792890000E-04   5.129965978170001E-04
   5.259843859770000E-04   5.393009615600000E-04   5.529546478580000E-04
   5.669539788710000E-04   5.813077046360000E-04   5.960247966980000E-04
   6.111144537200000E-04   6.265861072280000E-04   6.424494275090000E-04
   6.587143296550000E-04   6.753909797589999E-04   6.924898012700000E-04
   7.100214815090000E-04   7.279969783460000E-04   7.464275270520001E-04
   7.653246473200000E-04   7.847001504650000E-04   8.045661468070000E-04
   8.249350532410000E-04   8.458196009960000E-04   8.672328435950000E-04
   8.891881650110000E-04   9.116992880350000E-04   9.347802828510000E-04
   9.584455758330000E-04   9.827099585590000E-04   1.007588597060000E-03
   1.033097041290000E-03   1.059251234860000E-03   1.086067524990000E-03
   1.113562672750000E-03   1.141753863470000E-03   1.170658717600000E-03
   1.200295301580000E-03   1.230682139260000E-03   1.261838223400000E-03
   1.293783027570000E-03   1.326536518300000E-03   1.360119167600000E-03
   1.394551965720000E-03   1.429856434260000E-03   1.466054639690000E-03
   1.503169207040000E-03   1.541223334150000E-03   1.580240806060000E-03
   1.620246009980000E-03   1.661263950460000E-03   1.703320265050000E-03
   1.746441240310000E-03   1.790653828250000E-03   1.835985663190000E-03
   1.882465078990000E-03   1.930121126810000E-03   1.978983593220000E-03
   2.029083018850000E-03   2.080450717490000E-03   2.133118795600000E-03
   2.187120172470000E-03   2.242488600690000E-03   2.299258687350000E-03
   2.357465915590000E-03   2.417146666840000E-03   2.478338243490000E-03
   2.541078892280000E-03   2.605407828160000E-03   2.671365258800000E-03
   2.738992409750000E-03   2.808331550180000E-03   2.879426019300000E-03
   2.952320253480000E-03   3.027059813980000E-03   3.103691415460000E-03
   3.182262955180000E-03   3.262823542880000E-03   3.345423531580000E-03
   3.430114548940000E-03   3.516949529620000E-03   3.605982748300000E-03
   3.697269853640000E-03   3.790867903050000E-03   3.886835398370000E-03
   3.985232322390000E-03   4.086120176410000E-03   4.189562018610000E-03
   4.295622503520000E-03   4.404367922380000E-03   4.515866244620000E-03
   4.630187160340000E-03   4.747402123810000E-03   4.867584398210000E-03
   4.990809101370000E-03   5.117153252740000E-03   5.246695821540000E-03
   5.379517776070000E-03   5.515702134390000E-03   5.655334016160000E-03
   5.798500695840000E-03   5.945291657280000E-03   6.095798649590000E-03
   6.250115744560000E-03   6.408339395380000E-03   6.570568496990000E-03
   6.736904447860000E-03   6.907451213380000E-03   7.082315390820000E-03
   7.261606275990000E-03   7.445435931530000E-03   7.633919256950000E-03
   7.827174060470000E-03   8.025321132629999E-03   8.228484321810000E-03
   8.436790611610000E-03   8.650370200239999E-03   8.869356581900001E-03
   9.093886630200001E-03   9.324100683730000E-03   9.560142633780000E-03
   9.802160014249999E-03   1.005030409390000E-02   1.030472997080000E-02
   1.056559666940000E-02   1.083306724000000E-02   1.110730886020000E-02
   1.138849294020000E-02   1.167679522900000E-02   1.197239592510000E-02
   1.227547978830000E-02   1.258623625610000E-02   1.290485956130000E-02
   1.323154885390000E-02   1.356650832540000E-02   1.390994733620000E-02
   1.426208054690000E-02   1.462312805240000E-02   1.499331551890000E-02
   1.537287432580000E-02   1.576204170960000E-02   1.616106091270000E-02
   1.657018133490000E-02   1.698965869000000E-02   1.741975516490000E-02
   1.786073958380000E-02   1.831288757650000E-02   1.877648175010000E-02
   1.925181186610000E-02   1.973917502130000E-02   2.023887583340000E-02
   2.075122663190000E-02   2.127654765260000E-02   2.181516723820000E-02
   2.236742204350000E-02   2.293365724590000E-02   2.351422676060000E-02
   2.410949346250000E-02   2.471982941270000E-02   2.534561609110000E-02
   2.598724463470000E-02   2.664511608220000E-02   2.731964162460000E-02
   2.801124286250000E-02   2.872035206910000E-02   2.944741246070000E-02
   3.019287847370000E-02   3.095721604870000E-02   3.174090292150000E-02
   3.254442892200000E-02   3.336829628000000E-02   3.421301993950000E-02
   3.507912788020000E-02   3.596716144790000E-02   3.687767569230000E-02
   3.781123971460000E-02   3.876843702260000E-02   3.974986589580000E-02
   4.075613975920000E-02   4.178788756680000E-02   4.284575419450000E-02
   4.393040084330000E-02   4.504250545280000E-02   4.618276312460000E-02
   4.735188655670000E-02   4.855060648940000E-02   4.977967216160000E-02
   5.103985177950000E-02   5.233193299630000E-02   5.365672340490000E-02
   5.501505104230000E-02   5.640776490750000E-02   5.783573549210000E-02
   5.929985532420000E-02   6.080103952630000E-02   6.234022638730000E-02
   6.391837794930000E-02   6.553648060830000E-02   6.719554573110000E-02
   6.889661028740000E-02   7.064073749800000E-02   7.242901749920000E-02
   7.426256802410000E-02   7.614253510150000E-02   7.807009377210000E-02
   8.004644882280000E-02   8.207283553970000E-02   8.415052048070000E-02
   8.628080226630000E-02   8.846501239210000E-02   9.070451606040000E-02
   9.300071303410000E-02   9.535503851080000E-02   9.776896402080000E-02
   1.002439983460000E-01   1.027816884630000E-01   1.053836205120000E-01
   1.080514207840000E-01   1.107867567410000E-01   1.135913380580000E-01
   1.164669176890000E-01   1.194152929650000E-01   1.224383067170000E-01
   1.255378484250000E-01   1.287158554060000E-01   1.319743140160000E-01
   1.353152608990000E-01   1.387407842550000E-01   1.422530251480000E-01
   1.458541788420000E-01   1.495464961760000E-01   1.533322849680000E-01
   1.572139114600000E-01   1.611938017940000E-01   1.652744435310000E-01
   1.694583872060000E-01   1.737482479200000E-01   1.781467069740000E-01
   1.826565135500000E-01   1.872804864230000E-01   1.920215157260000E-01
   1.968825647570000E-01   2.018666718300000E-01   2.069769521750000E-01
   2.122165998830000E-01   2.175888899030000E-01   2.230971800940000E-01
   2.287449133140000E-01   2.345356195810000E-01   2.404729182760000E-01
   2.465605204020000E-01   2.528022309100000E-01   2.592019510720000E-01
   2.657636809210000E-01   2.724915217520000E-01   2.793896786840000E-01
   2.864624632910000E-01   2.937142962920000E-01   3.011497103200000E-01
   3.087733527500000E-01   3.165899886070000E-01   3.246045035430000E-01
   3.328219068910000E-01   3.412473347940000E-01   3.498860534210000E-01
   3.587434622500000E-01   3.678250974520000E-01   3.771366353430000E-01
   3.866838959390000E-01   3.964728465870000E-01   4.065096057000000E-01
   4.168004465800000E-01   4.273518013370000E-01   4.381702649120000E-01
   4.492625991960000E-01   4.606357372590000E-01   4.722967876830000E-01
   4.842530390040000E-01   4.965119642680000E-01   5.090812257030000E-01
   5.219686795060000E-01   5.351823807550000E-01   5.487305884440000E-01
   5.626217706430000E-01   5.768646097940000E-01   5.914680081350000E-01
   6.064410932650000E-01   6.217932238490000E-01   6.375339954700000E-01
   6.536732466210000E-01   6.702210648600000E-01   6.871877931120000E-01
   7.045840361350000E-01   7.224206671470000E-01   7.407088346230000E-01
   7.594599692620000E-01   7.786857911350000E-01   7.983983170059999E-01
   8.186098678450000E-01   8.393330765290000E-01   8.605808957390000E-01
   8.823666060530000E-01   9.047038242500000E-01   9.276065118170000E-01
   9.510889836800001E-01   9.751659171490000E-01   9.998523610900000E-01
   1.025163745340000E+00   1.051115890320000E+00   1.077725016990000E+00
   1.105007756900000E+00   1.132981162670000E+00   1.161662718570000E+00
   1.191070351520000E+00   1.221222442240000E+00   1.252137836770000E+00
   1.283835858230000E+00   1.316336318940000E+00   1.349659532720000E+00
   1.383826327670000E+00   1.418858059160000E+00   1.454776623150000E+00
   1.491604469920000E+00   1.529364618070000E+00   1.568080668920000E+00
   1.607776821260000E+00   1.648477886490000E+00   1.690209304080000E+00
   1.732997157550000E+00   1.776868190670000E+00   1.821849824300000E+00
   1.867970173390000E+00   1.915258064680000E+00   1.963743054650000E+00
   2.013455447970000E+00   2.064426316520000E+00   2.116687518760000E+00
   2.170271719620000E+00   2.225212411000000E+00   2.281543932590000E+00
   2.339301493440000E+00   2.398521193910000E+00   2.459240048230000E+00
   2.521496007670000E+00   2.585327984220000E+00   2.650775874950000E+00
   2.717880586930000E+00   2.786684062780000E+00   2.857229306910000E+00
   2.929560412390000E+00   3.003722588540000E+00   3.079762189100000E+00
   3.157726741320000E+00   3.237664975580000E+00   3.319626855870000E+00
   3.403663611040000E+00   3.489827766800000E+00   3.578173178540000E+00
   3.668755065030000E+00   3.761630042900000E+00   3.856856162020000E+00
   3.954492941820000E+00   4.054601408470000E+00   4.157244133030000E+00
   4.262485270520000E+00   4.370390600090000E+00   4.481027566090000E+00
   4.594465320220000E+00   4.710774764760000E+00   4.830028596910000E+00
   4.952301354200000E+00   5.077669461070000E+00   5.206211276680000E+00
   5.338007143840000E+00   5.473139439260000E+00   5.611692625030000E+00
   5.753753301400000E+00   5.899410260910000E+00   6.048754543910000E+00
   6.201879495430000E+00   6.358880823550000E+00   6.519856659210000E+00
   6.684907617560000E+00   6.854136860810000E+00   7.027650162750000E+00
   7.205555974840000E+00   7.387965494010000E+00   7.574992732140000E+00
   7.766754587340000E+00   7.963370917020000E+00   8.164964612780000E+00
   8.371661677250000E+00   8.583591302820000E+00   8.800885952400000E+00
   9.023681442219999E+00   9.252117026720001E+00   9.486335485580000E+00
   9.726483212950001E+00   9.972710308980000E+00   1.022517067360000E+01
   1.048402210280000E+01   1.074942638720000E+01   1.102154941290000E+01
   1.130056126590000E+01   1.158663633760000E+01   1.187995343410000E+01
   1.218069588840000E+01   1.248905167410000E+01   1.280521352370000E+01
   1.312937904860000E+01   1.346175086280000E+01   1.380253670960000E+01
   1.415194959110000E+01   1.451020790190000E+01   1.487753556500000E+01
   1.525416217220000E+01   1.564032312730000E+01   1.603625979350000E+01
   1.644221964410000E+01   1.685845641730000E+01   1.728523027460000E+01
   1.772280796350000E+01   1.817146298440000E+01   1.863147576120000E+01
   1.910313381680000E+01   1.958673195300000E+01   2.008257243430000E+01
   2.059096517710000E+01   2.111222794350000E+01   2.164668653970000E+01
   2.219467501960000E+01   2.275653589390000E+01   2.333262034400000E+01
   2.392328844140000E+01   2.452890937280000E+01   2.514986167120000E+01
   2.578653345170000E+01   2.643932265520000E+01   2.710863729600000E+01
   2.779489571760000E+01   2.849852685390000E+01   2.921997049720000E+01
   2.995967757330000E+01   3.071811042310000E+01   3.149574309200000E+01
   3.229306162560000E+01   3.311056437400000E+01   3.394876230300000E+01
   3.480817931350000E+01   3.568935256930000E+01   3.659283283220000E+01
   3.751918480690000E+01   3.846898749350000E+01   3.944283454960000E+01
   4.044133466130000E+01   4.146511192360000E+01   4.251480623070000E+01
   4.359107367570000E+01   4.469458696080000E+01   4.582603581780000E+01
   4.698612743890000E+01   4.817558691920000E+01   4.939515770960000E+01
   5.064560208150000E+01   5.192770160350000E+01   5.324225762940000E+01
   5.459009179950000E+01   5.597204655400000E+01   5.738898565970000E+01
   5.884179474970000E+01   6.033138187690000E+01   6.185867808170000E+01
   6.342463797410000E+01   6.503024032979999E+01   6.667648870270000E+01
   6.836441205160000E+01   7.009506538350000E+01   7.186953041300001E+01
   7.368891623870000E+01   7.555436003580000E+01   7.746702776750000E+01
   7.942811491330001E+01   8.143884721660000E+01   8.350048145050000E+01
   8.561430620340001E+01   8.778164268480000E+01   9.000384555040000E+01
   9.228230374940000E+01   9.461844139230000E+01   9.701371864120000E+01
   9.946963262240000E+01   1.019877183620000E+02   1.045695497460000E+02
   1.072167405020000E+02   1.099309452110000E+02   1.127138603400000E+02
   1.155672253000000E+02   1.184928235380000E+02   1.214924836490000E+02
   1.245680805160000E+02   1.277215364890000E+02   1.309548225800000E+02
   1.342699596980000E+02   1.376690199120000E+02   1.411541277450000E+02
   1.447274615030000E+02   1.483912546350000E+02   1.521477971320000E+02
   1.559994369550000E+02   1.599485815050000E+02   1.639976991240000E+02
   1.681493206450000E+02   1.724060409640000E+02   1.767705206720000E+02
   1.812454877090000E+02   1.858337390760000E+02   1.905381425790000E+02
   1.953616386240000E+02   2.003072420530000E+02
    </PP_R>
    <PP_RAB>
   1.202302876050000E-09   1.232739318270000E-09   1.263946262690000E-09
   1.295943214660000E-09   1.328750173330000E-09   1.362387644120000E-09
   1.396876651530000E-09   1.432238752320000E-09   1.468496048960000E-09
   1.505671203420000E-09   1.543787451410000E-09   1.582868616810000E-09
   1.622939126620000E-09   1.664024026210000E-09   1.706148994990000E-09
   1.749340362430000E-09   1.793625124540000E-09   1.839030960750000E-09
   1.885586251160000E-09   1.933320094370000E-09   1.982262325570000E-09
   2.032443535260000E-09   2.083895088310000E-09   2.136649143630000E-09
   2.190738674220000E-09   2.246197487800000E-09   2.303060247920000E-09
   2.361362495670000E-09   2.421140671850000E-09   2.482432139770000E-09
   2.545275208580000E-09   2.609709157250000E-09   2.675774259100000E-09
   2.743511806970000E-09   2.812964139020000E-09   2.884174665230000E-09
   2.957187894490000E-09   3.032049462460000E-09   3.108806160040000E-09
   3.187505962660000E-09   3.268198060280000E-09   3.350932888070000E-09
   3.435762158010000E-09   3.522738891130000E-09   3.611917450730000E-09
   3.703353576320000E-09   3.797104418450000E-09   3.893228574450000E-09
   3.991786125040000E-09   4.092838671900000E-09   4.196449376170000E-09
   4.302682997900000E-09   4.411605936570000E-09   4.523286272560000E-09
   4.637793809720000E-09   4.755200118980000E-09   4.875578583110000E-09
   4.999004442570000E-09   5.125554842530000E-09   5.255308881130000E-09
   5.388347658850000E-09   5.524754329260000E-09   5.664614150970000E-09
   5.808014540930000E-09   5.955045129040000E-09   6.105797814210000E-09
   6.260366821770000E-09   6.418848762390000E-09   6.581342692440000E-09
   6.747950175910000E-09   6.918775347910000E-09   7.093924979720000E-09
   7.273508545570000E-09   7.457638291040000E-09   7.646429303210001E-09
   7.839999582600000E-09   8.038470116940000E-09   8.241964956790000E-09
   8.450611293030000E-09   8.664539536410000E-09   8.883883399070000E-09
   9.108779978039999E-09   9.339369841010001E-09   9.575797114159999E-09
   9.818209572220001E-09   1.006675873090000E-08   1.032159994140000E-08
   1.058289248800000E-08   1.085079968680000E-08   1.112548898870000E-08
   1.140713208330000E-08   1.169590500680000E-08   1.199198825170000E-08
   1.229556687960000E-08   1.260683063710000E-08   1.292597407410000E-08
   1.325319666570000E-08   1.358870293660000E-08   1.393270258920000E-08
   1.428541063450000E-08   1.464704752650000E-08   1.501783929990000E-08
   1.539801771180000E-08   1.578782038600000E-08   1.618749096190000E-08
   1.659727924660000E-08   1.701744137110000E-08   1.744823995040000E-08
   1.788994424770000E-08   1.834283034250000E-08   1.880718130340000E-08
   1.928328736480000E-08   1.977144610860000E-08   2.027196264980000E-08
   2.078514982750000E-08   2.131132840050000E-08   2.185082724750000E-08
   2.240398357280000E-08   2.297114311720000E-08   2.355266037380000E-08
   2.414889880980000E-08   2.476023109370000E-08   2.538703932810000E-08
   2.602971528840000E-08   2.668866066820000E-08   2.736428732960000E-08
   2.805701756140000E-08   2.876728434260000E-08   2.949553161290000E-08
   3.024221455060000E-08   3.100779985680000E-08   3.179276604740000E-08
   3.259760375170000E-08   3.342281601950000E-08   3.426891863530000E-08
   3.513644044080000E-08   3.602592366530000E-08   3.693792426490000E-08
   3.787301226960000E-08   3.883177213990000E-08   3.981480313180000E-08
   4.082271967170000E-08   4.185615174030000E-08   4.291574526630000E-08
   4.400216253010000E-08   4.511608257790000E-08   4.625820164600000E-08
   4.742923359590000E-08   4.862991036070000E-08   4.986098240260000E-08
   5.112321918160000E-08   5.241740963680000E-08   5.374436267930000E-08
   5.510490769800000E-08   5.649989507790000E-08   5.793019673140000E-08
   5.939670664370000E-08   6.090034143110000E-08   6.244204091440000E-08
   6.402276870600000E-08   6.564351281210000E-08   6.730528625050000E-08
   6.900912768390000E-08   7.075610206850001E-08   7.254730132020000E-08
   7.438384499690000E-08   7.626688099800001E-08   7.819758628250000E-08
   8.017716760400000E-08   8.220686226520000E-08   8.428793889140000E-08
   8.642169822310000E-08   8.860947392960000E-08   9.085263344170000E-08
   9.315257880730000E-08   9.551074756690000E-08   9.792861365300000E-08
   1.004076883100000E-07   1.029495210420000E-07   1.055557005750000E-07
   1.082278558570000E-07   1.109676570720000E-07   1.137768166850000E-07
   1.166570905120000E-07   1.196102788190000E-07   1.226382274430000E-07
   1.257428289510000E-07   1.289260238210000E-07   1.321898016530000E-07
   1.355362024140000E-07   1.389673177140000E-07   1.424852921110000E-07
   1.460923244530000E-07   1.497906692540000E-07   1.535826381000000E-07
   1.574706010940000E-07   1.614569883400000E-07   1.655442914590000E-07
   1.697350651500000E-07   1.740319287810000E-07   1.784375680330000E-07
   1.829547365740000E-07   1.875862577810000E-07   1.923350265050000E-07
   1.972040108820000E-07   2.021962541860000E-07   2.073148767300000E-07
   2.125630778210000E-07   2.179441377550000E-07   2.234614198700000E-07
   2.291183726470000E-07   2.349185318650000E-07   2.408655228120000E-07
   2.469630625520000E-07   2.532149622460000E-07   2.596251295340000E-07
   2.661975709790000E-07   2.729363945720000E-07   2.798458122960000E-07
   2.869301427620000E-07   2.941938139080000E-07   3.016413657650000E-07
   3.092774532950000E-07   3.171068493000000E-07   3.251344474090000E-07
   3.333652651320000E-07   3.418044469980000E-07   3.504572677690000E-07
   3.593291357410000E-07   3.684255961210000E-07   3.777523344910000E-07
   3.873151803670000E-07   3.971201108390000E-07   4.071732543070000E-07
   4.174808943140000E-07   4.280494734710000E-07   4.388855974820000E-07
   4.499960392790000E-07   4.613877432480000E-07   4.730678295770000E-07
   4.850435986990001E-07   4.973225358600000E-07   5.099123157950000E-07
   5.228208075260000E-07   5.360560792810000E-07   5.496264035360000E-07
   5.635402621850000E-07   5.778063518420000E-07   5.924335892790000E-07
   6.074311169940001E-07   6.228083089310000E-07   6.385747763360000E-07
   6.547403737620000E-07   6.713152052360000E-07   6.883096305670000E-07
   7.057342718230000E-07   7.236000199720000E-07   7.419180416889999E-07
   7.606997863340000E-07   7.799569931080000E-07   7.997016983920000E-07
   8.199462432710000E-07   8.407032812430000E-07   8.619857861330000E-07
   8.838070601990000E-07   9.061807424480000E-07   9.291208171600000E-07
   9.526416226280000E-07   9.767578601220000E-07   1.001484603070000E-06
   1.026837306500000E-06   1.052831816680000E-06   1.079484381010000E-06
   1.106811658220000E-06   1.134830728740000E-06   1.163559105420000E-06
   1.193014744410000E-06   1.223216056450000E-06   1.254181918350000E-06
   1.285931684770000E-06   1.318485200350000E-06   1.351862812110000E-06