<UPF version="2.0.1">
  <PP_INFO>
    Generated by new atomic code, or converted to UPF format
    Author: 
    Generation date: 
    Pseudopotential type: US
    Element: Al
    Functional: SLA  PZ   NOGX NOGC
    Suggested minimum cutoff for wavefunctions:   0. Ry
    Suggested minimum cutoff for charge density:   0. Ry
    The Pseudo was generated with a Non-Relativistic Calculation
    L component and cutoff radius for Local Potential:  0   0.0000
    Valence configuration: 
    nl pn  l   occ       Rcut    Rcut US       E pseu
    3S  1  0  2.00      0.000      0.000     0.000000
    3P  2  1  1.00      0.000      0.000     0.000000
    Generation configuration: not available.
  </PP_INFO>
    <!-- END OF HUMAN READABLE SECTION -->
  <PP_HEADER generated="Generated by new atomic code, or converted to UPF format" author="" date="" comment="" element="Al" pseudo_type="US" relativistic="no" is_ultrasoft="true" is_paw="false" is_coulomb="false" has_so="false" has_wfc="false" has_gipaw="false" paw_as_gipaw="false" core_correction="true" functional="SLA  PZ   NOGX NOGC" z_valence="3.0000000000000000" total_psenergy="-6.3362732259200003" wfc_cutoff="0.0000000000000000" rho_cutoff="0.0000000000000000" l_max="2" l_max_rho="0" l_local="0" mesh_size="893" number_of_wfc="2" number_of_proj="3"/>
  <PP_MESH>
    <PP_R>
   0.000000000000000E+00   1.178876122030000E-06   2.377564825650000E-06
   3.596399087650000E-06   4.835717480950000E-06   6.095864268620000E-06
   7.377189499540000E-06   8.680049105620000E-06   1.000480500070000E-05
   1.135182518100000E-05   1.272148382750000E-05   1.411416140980000E-05
   1.553024479160000E-05   1.697012733850000E-05   1.843420902730000E-05
   1.992289655670000E-05   2.143660346050000E-05   2.297575022260000E-05
   2.454076439380000E-05   2.613208071010000E-05   2.775014121430000E-05
   2.939539537780000E-05   3.106830022640000E-05   3.276932046660000E-05
   3.449892861490000E-05   3.625760512920000E-05   3.804583854200000E-05
   3.986412559640000E-05   4.171297138380000E-05   4.359288948430000E-05
   4.550440210950000E-05   4.744804024740000E-05   4.942434381000000E-05
   5.143386178320000E-05   5.347715237940000E-05   5.555478319240000E-05
   5.766733135530000E-05   5.981538370060000E-05   6.199953692330000E-05
   6.422039774670000E-05   6.647858309080001E-05   6.877472024380000E-05
   7.110944703649999E-05   7.348341201900000E-05   7.589727464130000E-05
   7.835170543640001E-05   8.084738620629999E-05   8.338501021179999E-05
   8.596528236470000E-05   8.858891942390000E-05   9.125665019430001E-05
   9.396921572950000E-05   9.672736953720000E-05   9.953187778910000E-05
   1.023835195330000E-04   1.052830869110000E-04   1.082313853750000E-04
   1.112292339180000E-04   1.142774652940000E-04   1.173769262530000E-04
   1.205284777780000E-04   1.237329953180000E-04   1.269913690390000E-04
   1.303045040660000E-04   1.336733207340000E-04   1.370987548480000E-04
   1.405817579400000E-04   1.441232975320000E-04   1.477243574080000E-04
   1.513859378870000E-04   1.551090560970000E-04   1.588947462620000E-04
   1.627440599860000E-04   1.666580665490000E-04   1.706378531990000E-04
   1.746845254580000E-04   1.787992074280000E-04   1.829830421030000E-04
   1.872371916860000E-04   1.915628379120000E-04   1.959611823780000E-04
   2.004334468740000E-04   2.049808737240000E-04   2.096047261330000E-04
   2.143062885330000E-04   2.190868669440000E-04   2.239477893350000E-04
   2.288904059940000E-04   2.339160899010000E-04   2.390262371130000E-04
   2.442222671470000E-04   2.495056233780000E-04   2.548777734400000E-04
   2.603402096310000E-04   2.658944493290000E-04   2.715420354140000E-04
   2.772845366970000E-04   2.831235483540000E-04   2.890606923690000E-04
   2.950976179890000E-04   3.012360021750000E-04   3.074775500740000E-04
   3.138239954890000E-04   3.202771013620000E-04   3.268386602650000E-04
   3.335104948940000E-04   3.402944585810000E-04   3.471924358020000E-04
   3.542063427080000E-04   3.613381276510000E-04   3.685897717270000E-04
   3.759632893300000E-04   3.834607287050000E-04   3.910841725240000E-04
   3.988357384590000E-04   4.067175797710000E-04   4.147318859130000E-04
   4.228808831310000E-04   4.311668350890000E-04   4.395920434930000E-04
   4.481588487330000E-04   4.568696305330000E-04   4.657268086090000E-04
   4.747328433460000E-04   4.838902364780000E-04   4.932015317850000E-04
   5.026693157980000E-04   5.122962185160000E-04   5.220849141420000E-04
   5.320381218210000E-04   5.421586063960000E-04   5.524491791790000E-04
   5.629126987280000E-04   5.735520716440000E-04   5.843702533750000E-04
   5.953702490440000E-04   6.065551142730000E-04   6.179279560430000E-04
   6.294919335490000E-04   6.412502590820000E-04   6.532061989190000E-04
   6.653630742299999E-04   6.777242620040000E-04   6.902931959840000E-04
   7.030733676210000E-04   7.160683270460000E-04   7.292816840510000E-04
   7.427171091000000E-04   7.563783343410000E-04   7.702691546470000E-04
   7.843934286680000E-04   7.987550799050000E-04   8.133580977980000E-04
   8.282065388340000E-04   8.433045276760000E-04   8.586562583060000E-04
   8.742659951930000E-04   8.901380744760000E-04   9.062769051670000E-04
   9.226869703790000E-04   9.393728285680000E-04   9.563391148030000E-04
   9.735905420500000E-04   9.911319024820001E-04   1.008968068810000E-03
   1.027103995650000E-03   1.045544720860000E-03   1.064295367000000E-03
   1.083361142690000E-03   1.102747344100000E-03   1.122459356420000E-03
   1.142502655330000E-03   1.162882808550000E-03   1.183605477350000E-03
   1.204676418170000E-03   1.226101484180000E-03   1.247886626940000E-03
   1.270037898000000E-03   1.292561450630000E-03   1.315463541540000E-03
   1.338750532550000E-03   1.362428892430000E-03   1.386505198650000E-03
   1.410986139220000E-03   1.435878514570000E-03   1.461189239400000E-03
   1.486925344630000E-03   1.513093979360000E-03   1.539702412800000E-03
   1.566758036370000E-03   1.594268365690000E-03   1.622241042690000E-03
   1.650683837740000E-03   1.679604651800000E-03   1.709011518620000E-03
   1.738912606960000E-03   1.769316222870000E-03   1.800230811990000E-03
   1.831664961910000E-03   1.863627404540000E-03   1.896127018530000E-03
   1.929172831780000E-03   1.962774023890000E-03   1.996939928730000E-03
   2.031680037060000E-03   2.067003999120000E-03   2.102921627360000E-03
   2.139442899130000E-03   2.176577959460000E-03   2.214337123880000E-03
   2.252730881290000E-03   2.291769896870000E-03   2.331465015050000E-03
   2.371827262500000E-03   2.412867851220000E-03   2.454598181620000E-03
   2.497029845750000E-03   2.540174630450000E-03   2.584044520650000E-03
   2.628651702710000E-03   2.674008567820000E-03   2.720127715390000E-03
   2.767021956590000E-03   2.814704317900000E-03   2.863188044730000E-03
   2.912486605090000E-03   2.962613693340000E-03   3.013583234000000E-03
   3.065409385600000E-03   3.118106544630000E-03   3.171689349520000E-03
   3.226172684730000E-03   3.281571684870000E-03   3.337901738920000E-03
   3.395178494460000E-03   3.453417862080000E-03   3.512636019760000E-03
   3.572849417350000E-03   3.634074781200000E-03   3.696329118750000E-03
   3.759629723250000E-03   3.823994178640000E-03   3.889440364320000E-03
   3.955986460220000E-03   4.023650951800000E-03   4.092452635170000E-03
   4.162410622370000E-03   4.233544346620000E-03   4.305873567730000E-03
   4.379418377640000E-03   4.454199205910000E-03   4.530236825500000E-03
   4.607552358440000E-03   4.686167281770000E-03   4.766103433470000E-03
   4.847383018550000E-03   4.930028615190000E-03   5.014063181030000E-03
   5.099510059550000E-03   5.186392986540000E-03   5.274736096710000E-03
   5.364563930380000E-03   5.455901440290000E-03   5.548773998570000E-03
   5.643207403750000E-03   5.739227887940000E-03   5.836862124110000E-03
   5.936137233510000E-03   6.037080793190000E-03   6.139720843700000E-03
   6.244085896800000E-03   6.350204943460000E-03   6.458107461880000E-03
   6.567823425680000E-03   6.679383312210000E-03   6.792818111050000E-03
   6.908159332600000E-03   7.025439016830000E-03   7.144689742180000E-03
   7.265944634620000E-03   7.389237376830000E-03   7.514602217610000E-03
   7.642073981330000E-03   7.771688077620000E-03   7.903480511230000E-03
   8.037487892020001E-03   8.173747445129999E-03   8.312297021310000E-03
   8.453175107440000E-03   8.596420837240000E-03   8.742074002090001E-03
   8.890175062150001E-03   9.040765157560001E-03   9.193886119860000E-03
   9.349580483650000E-03   9.507891498349999E-03   9.668863140270000E-03
   9.832540124790000E-03   9.998967918779999E-03   1.016819275330000E-02
   1.034026163620000E-02   1.051522236570000E-02   1.069312354300000E-02
   1.087401458620000E-02   1.105794574410000E-02   1.124496810980000E-02
   1.143513363520000E-02   1.162849514520000E-02   1.182510635260000E-02
   1.202502187290000E-02   1.222829723950000E-02   1.243498891910000E-02
   1.264515432740000E-02   1.285885184490000E-02   1.307614083350000E-02
   1.329708165270000E-02   1.352173567620000E-02   1.375016530950000E-02
   1.398243400670000E-02   1.421860628830000E-02   1.445874775940000E-02
   1.470292512730000E-02   1.495120622080000E-02   1.520366000830000E-02
   1.546035661760000E-02   1.572136735500000E-02   1.598676472500000E-02
   1.625662245090000E-02   1.653101549490000E-02   1.681002007900000E-02
   1.709371370640000E-02   1.738217518260000E-02   1.767548463760000E-02
   1.797372354830000E-02   1.827697476070000E-02   1.858532251310000E-02
   1.889885245970000E-02   1.921765169420000E-02   1.954180877390000E-02
   1.987141374460000E-02   2.020655816540000E-02   2.054733513400000E-02
   2.089383931300000E-02   2.124616695560000E-02   2.160441593300000E-02
   2.196868576110000E-02   2.233907762830000E-02   2.271569442360000E-02
   2.309864076510000E-02   2.348802302940000E-02   2.388394938070000E-02
   2.428652980100000E-02   2.469587612090000E-02   2.511210205030000E-02
   2.553532321020000E-02   2.596565716470000E-02   2.640322345380000E-02
   2.684814362660000E-02   2.730054127480000E-02   2.776054206730000E-02
   2.822827378510000E-02   2.870386635670000E-02   2.918745189410000E-02
   2.967916472990000E-02   3.017914145410000E-02   3.068752095230000E-02
   3.120444444420000E-02   3.173005552320000E-02   3.226450019560000E-02
   3.280792692180000E-02   3.336048665700000E-02   3.392233289380000E-02
   3.449362170400000E-02   3.507451178270000E-02   3.566516449200000E-02
   3.626574390580000E-02   3.687641685570000E-02   3.749735297700000E-02
   3.812872475580000E-02   3.877070757740000E-02   3.942347977440000E-02
   4.008722267660000E-02   4.076212066130000E-02   4.144836120450000E-02
   4.214613493300000E-02   4.285563567730000E-02   4.357706052550000E-02
   4.431060987810000E-02   4.505648750340000E-02   4.581490059460000E-02
   4.658605982670000E-02   4.737017941570000E-02   4.816747717750000E-02
   4.897817458890000E-02   4.980249684890000E-02   5.064067294110000E-02
   5.149293569770000E-02   5.235952186370000E-02   5.324067216310000E-02
   5.413663136560000E-02   5.504764835450000E-02   5.597397619580000E-02
   5.691587220890000E-02   5.787359803760000E-02   5.884741972300000E-02
   5.983760777740000E-02   6.084443725930000E-02   6.186818785020000E-02
   6.290914393170000E-02   6.396759466510001E-02   6.504383407120000E-02
   6.613816111230000E-02   6.725087977520000E-02   6.838229915560000E-02
   6.953273354389999E-02   7.070250251260000E-02   7.189193100510000E-02
   7.310134942580000E-02   7.433109373200000E-02   7.558150552740001E-02
   7.685293215650001E-02   7.814572680159999E-02   7.946024858060000E-02
   8.079686264700001E-02   8.215594029090000E-02   8.353785904270000E-02
   8.494300277770001E-02   8.637176182250000E-02   8.782453306390001E-02
   8.930172005870000E-02   9.080373314619999E-02   9.233098956180000E-02
   9.388391355340001E-02   9.546293649870000E-02   9.706849702520000E-02
   9.870104113250000E-02   1.003610223150000E-01   1.020489016900000E-01
   1.037651481240000E-01   1.055102383620000E-01   1.072846571630000E-01
   1.090888974330000E-01   1.109234603610000E-01   1.127888555590000E-01
   1.146856012060000E-01   1.166142241860000E-01   1.185752602420000E-01
   1.205692541170000E-01   1.225967597130000E-01   1.246583402370000E-01
   1.267545683640000E-01   1.288860263940000E-01   1.310533064120000E-01
   1.332570104540000E-01   1.354977506740000E-01   1.377761495150000E-01
   1.400928398790000E-01   1.424484653070000E-01   1.448436801540000E-01
   1.472791497730000E-01   1.497555506990000E-01   1.522735708380000E-01
   1.548339096540000E-01   1.574372783710000E-01   1.600844001630000E-01
   1.627760103570000E-01   1.655128566430000E-01   1.682956992710000E-01
   1.711253112710000E-01   1.740024786660000E-01   1.769280006870000E-01
   1.799026899970000E-01   1.829273729190000E-01   1.860028896610000E-01
   1.891300945530000E-01   1.923098562840000E-01   1.955430581420000E-01
   1.988305982580000E-01   2.021733898590000E-01   2.055723615200000E-01
   2.090284574230000E-01   2.125426376140000E-01   2.161158782790000E-01
   2.197491720080000E-01   2.234435280700000E-01   2.271999727020000E-01
   2.310195493830000E-01   2.349033191320000E-01   2.388523607980000E-01
   2.428677713630000E-01   2.469506662450000E-01   2.511021796070000E-01
   2.553234646750000E-01   2.596156940540000E-01   2.639800600570000E-01
   2.684177750380000E-01   2.729300717230000E-01   2.775182035570000E-01
   2.821834450500000E-01   2.869270921330000E-01   2.917504625170000E-01
   2.966548960560000E-01   3.016417551260000E-01   3.067124249970000E-01
   3.118683142210000E-01   3.171108550230000E-01   3.224415036980000E-01
   3.278617410160000E-01   3.333730726320000E-01   3.389770295090000E-01
   3.446751683360000E-01   3.504690719670000E-01   3.563603498570000E-01
   3.623506385100000E-01   3.684416019320000E-01   3.746349320980000E-01
   3.809323494180000E-01   3.873356032130000E-01   3.938464722070000E-01
   4.004667650160000E-01   4.071983206540000E-01   4.140430090400000E-01
   4.210027315200000E-01   4.280794213960000E-01   4.352750444590000E-01
   4.425915995420000E-01   4.500311190660000E-01   4.575956696130000E-01
   4.652873524960000E-01   4.731083043430000E-01   4.810606976900000E-01
   4.891467415870000E-01   4.973686822100000E-01   5.057288034830000E-01
   5.142294277160000E-01   5.228729162490000E-01   5.316616701060000E-01
   5.405981306630000E-01   5.496847803300000E-01   5.589241432320000E-01
   5.683187859200000E-01   5.778713180770000E-01   5.875843932460000E-01
   5.974607095650000E-01   6.075030105190000E-01   6.177140857000000E-01
   6.280967715850000E-01   6.386539523190000E-01   6.493885605200000E-01
   6.603035780930000E-01   6.714020370579999E-01   6.826870203910000E-01
   6.941616628820000E-01   7.058291520060000E-01   7.176927288070000E-01
   7.297556887990000E-01   7.420213828830000E-01   7.544932182730000E-01
   7.671746594500000E-01   7.800692291170001E-01   7.931805091820000E-01
   8.065121417509999E-01   8.200678301420000E-01   8.338513399100000E-01
   8.478664998980000E-01   8.621172032950000E-01   8.766074087210000E-01
   8.913411413280000E-01   9.063224939120000E-01   9.215556280570000E-01
   9.370447752880000E-01   9.527942382440000E-01   9.688083918780001E-01
   9.850916846690000E-01   1.001648639860000E+00   1.018483856710000E+00
   1.035602011770000E+00   1.053007860210000E+00   1.070706237080000E+00
   1.088702058720000E+00   1.107000324090000E+00   1.125606116150000E+00
   1.144524603300000E+00   1.163761040790000E+00   1.183320772210000E+00
   1.203209230940000E+00   1.223431941680000E+00   1.243994521970000E+00
   1.264902683780000E+00   1.286162235070000E+00   1.307779081390000E+00
   1.329759227580000E+00   1.352108779370000E+00   1.374833945110000E+00
   1.397941037500000E+00   1.421436475310000E+00   1.445326785210000E+00
   1.469618603560000E+00   1.494318678230000E+00   1.519433870510000E+00
   1.544971157020000E+00   1.570937631600000E+00   1.597340507320000E+00
   1.624187118510000E+00   1.651484922700000E+00   1.679241502820000E+00
   1.707464569190000E+00   1.736161961740000E+00   1.765341652150000E+00
   1.795011746080000E+00   1.825180485400000E+00   1.855856250530000E+00
   1.887047562700000E+00   1.918763086370000E+00   1.951011631610000E+00
   1.983802156560000E+00   2.017143769900000E+00   2.051045733410000E+00
   2.085517464510000E+00   2.120568538930000E+00   2.156208693270000E+00
   2.192447827830000E+00   2.229296009260000E+00   2.266763473390000E+00
   2.304860628110000E+00   2.343598056200000E+00   2.382986518300000E+00
   2.423036955910000E+00   2.463760494400000E+00   2.505168446140000E+00
   2.547272313590000E+00   2.590083792560000E+00   2.633614775380000E+00
   2.677877354280000E+00   2.722883824710000E+00   2.768646688740000E+00
   2.815178658590000E+00   2.862492660100000E+00   2.910601836350000E+00
   2.959519551310000E+00   3.009259393550000E+00   3.059835180020000E+00
   3.111260959850000E+00   3.163551018340000E+00   3.216719880820000E+00
   3.270782316780000E+00   3.325753343890000E+00   3.381648232250000E+00
   3.438482508560000E+00   3.496271960510000E+00   3.555032641070000E+00
   3.614780873050000E+00   3.675533253550000E+00   3.737306658630000E+00
   3.800118247970000E+00   3.863985469620000E+00   3.928926064910000E+00
   3.994958073300000E+00   4.062099837430000E+00   4.130370008240000E+00
   4.199787550090000E+00   4.270371746090000E+00   4.342142203400000E+00
   4.415118858730000E+00   4.489321983840000E+00   4.564772191190000E+00
   4.641490439650000E+00   4.719498040340000E+00   4.798816662530000E+00
   4.879468339700000E+00   4.961475475610000E+00   5.044860850530000E+00
   5.129647627610000E+00   5.215859359280000E+00   5.303519993800000E+00
   5.392653881900000E+00   5.483285783580000E+00   5.575440874930000E+00
   5.669144755200000E+00   5.764423453840000E+00   5.861303437770000E+00
   5.959811618720000E+00   6.059975360700000E+00   6.161822487620000E+00
   6.265381291000000E+00   6.370680537850000E+00   6.477749478630000E+00
   6.586617855400000E+00   6.697315910080000E+00   6.809874392850000E+00
   6.924324570660000E+00   7.040698235970000E+00   7.159027715550000E+00
   7.279345879460000E+00   7.401686150180000E+00   7.526082511910000E+00
   7.652569520000000E+00   7.781182310530000E+00   7.911956610110000E+00
   8.044928745780000E+00   8.180135655090000E+00   8.317614896389999E+00
   8.457404659240000E+00   8.599543775030000E+00   8.744071727760000E+00
   8.891028665020000E+00   9.040455409110001E+00   9.192393468440001E+00
   9.346885048980001E+00   9.503973066069999E+00   9.663701156280000E+00
   9.826113689540000E+00   9.991255781500000E+00   1.015917330600000E+01
   1.032991290790000E+01   1.050352201600000E+01   1.068004885610000E+01
   1.085954246460000E+01   1.104205270200000E+01   1.122763026670000E+01
   1.141632670930000E+01   1.160819444660000E+01   1.180328677660000E+01
   1.200165789260000E+01   1.220336289930000E+01   1.240845782680000E+01
   1.261699964750000E+01   1.282904629100000E+01   1.304465666040000E+01
   1.326389064880000E+01   1.348680915620000E+01   1.371347410560000E+01
   1.394394846100000E+01   1.417829624460000E+01   1.441658255450000E+01
   1.465887358280000E+01   1.490523663420000E+01   1.515574014450000E+01
   1.541045369940000E+01   1.566944805460000E+01   1.593279515450000E+01
   1.620056815270000E+01   1.647284143240000E+01   1.674969062680000E+01
   1.703119264020000E+01   1.731742566940000E+01   1.760846922550000E+01
   1.790440415580000E+01   1.820531266630000E+01   1.851127834460000E+01
   1.882238618330000E+01   1.913872260300000E+01   1.946037547710000E+01
   1.978743415570000E+01   2.011998949050000E+01   2.045813386010000E+01
   2.080196119570000E+01   2.115156700710000E+01   2.150704840930000E+01
   2.186850414940000E+01   2.223603463400000E+01   2.260974195750000E+01
   2.298972992960000E+01   2.337610410520000E+01   2.376897181280000E+01
   2.416844218490000E+01   2.457462618810000E+01   2.498763665380000E+01
   2.540758830980000E+01   2.583459781220000E+01   2.626878377730000E+01
   2.671026681510000E+01   2.715916956280000E+01   2.761561671840000E+01
   2.807973507560000E+01   2.855165355940000E+01   2.903150326100000E+01
   2.951941747530000E+01   3.001553173710000E+01   3.051998385910000E+01
   3.103291397010000E+01   3.155446455400000E+01   3.208478048930000E+01
   3.262400908940000E+01   3.317230014360000E+01   3.372980595840000E+01
   3.429668140000000E+01   3.487308393770000E+01   3.545917368680000E+01
   3.605511345390000E+01   3.666106878160000E+01   3.727720799470000E+01
   3.790370224700000E+01   3.854072556870000E+01   3.918845491480000E+01
   3.984707021430000E+01   4.051675442020000E+01   4.119769356000000E+01
   4.189007678800000E+01   4.259409643730000E+01   4.330994807340000E+01
   4.403783054860000E+01   4.477794605720000E+01   4.553050019150000E+01
   4.629570199920000E+01   4.707376404140000E+01   4.786490245130000E+01
   4.866933699460000E+01   4.948729113070000E+01   5.031899207430000E+01
   5.116467085860000E+01   5.202456240010000E+01   5.289890556280000E+01
   5.378794322570000E+01   5.469192234920000E+01   5.561109404450000E+01
   5.654571364310000E+01   5.749604076740000E+01   5.846233940330000E+01
   5.944487797330000E+01   6.044392941120000E+01   6.145977123760000E+01
   6.249268563740000E+01   6.354295953780000E+01   6.461088468840001E+01
   6.569675774190000E+01   6.680088033670000E+01   6.792355918059999E+01
   6.906510613600000E+01   7.022583830680000E+01   7.140607812590000E+01
   7.260615344540000E+01   7.382639762709999E+01   7.506714963570001E+01
   7.632875413249999E+01   7.761156157130000E+01   7.891592829580000E+01
   8.024221663829999E+01   8.159079502100001E+01   8.296203805739999E+01
   8.435632665740000E+01   8.577404813230000E+01   8.721559630260001E+01
   8.868137160780000E+01   9.017178121700000E+01   9.168723914260001E+01
   9.322816635469999E+01   9.479499089860001E+01   9.638814801350000E+01
   9.800808025320001E+01   9.965523760930000E+01   1.013300776360000E+02
   1.030330655780000E+02   1.047646744980000E+02   1.065253854090000E+02
   1.083156874090000E+02   1.101360778170000E+02   1.119870623070000E+02
   1.138691550540000E+02   1.157828788740000E+02   1.177287653680000E+02
   1.197073550730000E+02   1.217191976110000E+02   1.237648518400000E+02
   1.258448860090000E+02   1.279598779190000E+02   1.301104150830000E+02
   1.322970948840000E+02   1.345205247490000E+02   1.367813223100000E+02
   1.390801155830000E+02   1.414175431340000E+02   1.437942542650000E+02
   1.462109091890000E+02   1.486681792140000E+02   1.511667469300000E+02
   1.537073064020000E+02   1.562905633550000E+02   1.589172353780000E+02
   1.615880521180000E+02   1.643037554880000E+02   1.670650998650000E+02
   1.698728523080000E+02   1.727277927670000E+02   1.756307142980000E+02
   1.785824232870000E+02   1.815837396730000E+02   1.846354971730000E+02
   1.877385435190000E+02   1.908937406860000E+02   1.941019651400000E+02
   1.973641080730000E+02   2.006810756590000E+02
    </PP_R>
    <PP_RAB>
   1.169079443020000E-06   1.188727378390000E-06   1.208705523450000E-06
   1.229019427810000E-06   1.249674734370000E-06   1.270677180830000E-06
   1.292032601340000E-06   1.313746928110000E-06   1.335826193030000E-06
   1.358276529370000E-06   1.381104173480000E-06   1.404315466510000E-06
   1.427916856210000E-06   1.451914898660000E-06   1.476316260140000E-06
   1.501127718960000E-06   1.526356167360000E-06   1.552008613400000E-06
   1.578092182910000E-06   1.604614121520000E-06   1.631581796590000E-06
   1.659002699320000E-06   1.686884446790000E-06   1.715234784130000E-06
   1.744061586600000E-06   1.773372861840000E-06   1.803176752050000E-06
   1.833481536290000E-06   1.864295632750000E-06   1.895627601090000E-06
   1.927486144840000E-06   1.959880113810000E-06   1.992818506520000E-06
   2.026310472740000E-06   2.060365316010000E-06   2.094992496230000E-06
   2.130201632270000E-06   2.166002504700000E-06   2.202405058410000E-06
   2.239419405460000E-06   2.277055827860000E-06   2.315324780420000E-06
   2.354236893630000E-06   2.393802976670000E-06   2.434034020370000E-06
   2.474941200290000E-06   2.516535879790000E-06   2.558829613220000E-06
   2.601834149100000E-06   2.645561433420000E-06   2.690023612920000E-06
   2.735233038510000E-06   2.781202268640000E-06   2.827944072840000E-06
   2.875471435240000E-06   2.923797558200000E-06   2.972935865940000E-06
   3.022900008320000E-06   3.073703864590000E-06   3.125361547240000E-06
   3.177887405980000E-06   3.231296031660000E-06   3.285602260340000E-06
   3.340821177450000E-06   3.396968121920000E-06   3.454058690480000E-06
   3.512108742010000E-06   3.571134401880000E-06   3.631152066490000E-06
   3.692178407810000E-06   3.754230377970000E-06   3.817325214050000E-06
   3.881480442790000E-06   3.946713885500000E-06   4.013043663000000E-06
   4.080488200650000E-06   4.149066233490000E-06   4.218796811410000E-06
   4.289699304450000E-06   4.361793408220000E-06   4.435099149310000E-06
   4.509636890910000E-06   4.585427338420000E-06   4.662491545240000E-06
   4.740850918570000E-06   4.820527225420000E-06   4.901542598600000E-06
   4.983919542920000E-06   5.067680941370000E-06   5.152850061570000E-06
   5.239450562130000E-06   5.327506499320000E-06   5.417042333690000E-06
   5.508082936860000E-06   5.600653598490000E-06   5.694780033250000E-06
   5.790488387960000E-06   5.887805248910000E-06   5.986757649170000E-06
   6.087373076170000E-06   6.189679479270000E-06   6.293705277580000E-06
   6.399479367830000E-06   6.507031132390000E-06   6.616390447430000E-06
   6.727587691260000E-06   6.840653752700000E-06   6.955620039730000E-06
   7.072518488150000E-06   7.191381570530000E-06   7.312242305140000E-06
   7.435134265180000E-06   7.560091588110000E-06   7.687148985090000E-06
   7.816341750660001E-06   7.947705772530000E-06   8.081277541560000E-06
   8.217094161870000E-06   8.355193361170000E-06   8.495613501239999E-06
   8.638393588569999E-06   8.783573285230000E-06   8.931192919830000E-06
   9.081293498779999E-06   9.233916717660000E-06   9.389104972780000E-06
   9.546901372980001E-06   9.707349751620000E-06   9.870494678719999E-06
   1.003638147340000E-05   1.020505621630000E-05   1.037656576270000E-05
   1.055095775520000E-05   1.072828063710000E-05   1.090858366590000E-05
   1.109191692710000E-05   1.127833134760000E-05   1.146787871040000E-05
   1.166061166880000E-05   1.185658376110000E-05   1.205584942500000E-05
   1.225846401350000E-05   1.246448380980000E-05   1.267396604280000E-05
   1.288696890340000E-05   1.310355156040000E-05   1.332377417720000E-05
   1.354769792800000E-05   1.377538501540000E-05   1.400689868710000E-05
   1.424230325420000E-05   1.448166410810000E-05   1.472504773970000E-05
   1.497252175690000E-05   1.522415490430000E-05   1.548001708150000E-05
   1.574017936290000E-05   1.600471401760000E-05   1.627369452910000E-05
   1.654719561600000E-05   1.682529325250000E-05   1.710806468970000E-05
   1.739558847720000E-05   1.768794448440000E-05   1.798521392330000E-05
   1.828747937050000E-05   1.859482479070000E-05   1.890733555970000E-05
   1.922509848780000E-05   1.954820184470000E-05   1.987673538330000E-05
   2.021079036520000E-05   2.055045958540000E-05   2.089583739880000E-05
   2.124701974580000E-05   2.160410417940000E-05   2.196718989200000E-05
   2.233637774290000E-05   2.271177028690000E-05   2.309347180200000E-05
   2.348158831890000E-05   2.387622765020000E-05   2.427749942040000E-05
   2.468551509660000E-05   2.510038801910000E-05   2.552223343300000E-05
   2.595116852030000E-05   2.638731243230000E-05   2.683078632310000E-05
   2.728171338250000E-05   2.774021887110000E-05   2.820643015450000E-05
   2.868047673870000E-05   2.916249030640000E-05   2.965260475340000E-05
   3.015095622570000E-05   3.065768315740000E-05   3.117292630950000E-05
   3.169682880810000E-05   3.222953618530000E-05   3.277119641860000E-05
   3.332195997280000E-05   3.388197984120000E-05   3.445141158850000E-05
   3.503041339400000E-05   3.561914609500000E-05   3.621777323240000E-05
   3.682646109520000E-05   3.744537876730000E-05   3.807469817430000E-05
   3.871459413120000E-05   3.936524439090000E-05   4.002682969390000E-05
   4.069953381800000E-05   4.138354362990000E-05   4.207904913670000E-05
   4.278624353890000E-05   4.350532328380000E-05   4.423648812040000E-05
   4.497994115490000E-05   4.573588890670000E-05   4.650454136620000E-05
   4.728611205290000E-05   4.808081807470000E-05   4.888888018850000E-05
   4.971052286120000E-05   5.054597433210000E-05   5.139546667640000E-05
   5.225923586970000E-05   5.313752185350000E-05   5.403056860160000E-05
   5.493862418850000E-05   5.586194085760000E-05   5.680077509170000E-05
   5.775538768400000E-05   5.872604381110000E-05   5.971301310560000E-05
   6.071656973220000E-05   6.173699246310000E-05   6.277456475549999E-05
   6.382957483060001E-05   6.490231575359999E-05   6.599308551500001E-05
   6.710218711340001E-05   6.822992863960000E-05   6.937662336260000E-05
   7.054258981589999E-05   7.172815188670000E-05   7.293363890530000E-05
   7.415938573700001E-05   7.540573287490000E-05   7.667302653460000E-05
   7.796161875030000E-05   7.927186747240000E-05   8.060413666750001E-05
   8.195879641890000E-05   8.333622302950000E-05   8.473679912690000E-05
   8.616091376890000E-05   8.760896255210000E-05   8.908134772150000E-05
   9.057847828259999E-05   9.210077011450001E-05   9.364864608590000E-05
   9.522253617220000E-05   9.682287757540001E-05   9.845011484480001E-05
   1.001047000010000E-04   1.017870926630000E-04   1.034977601710000E-04
   1.052371777230000E-04   1.070058285010000E-04   1.088042038080000E-04
   1.106328032040000E-04   1.124921346470000E-04   1.143827146270000E-04
   1.163050683200000E-04   1.182597297240000E-04   1.202472418130000E-04
   1.222681566870000E-04   1.243230357240000E-04   1.264124497370000E-04