<UPF version="2.0.1">
  <PP_INFO>
    Generated by new atomic code, or converted to UPF format
    Author: 
    Generation date: 
    Pseudopotential type: US
    Element: As
    Functional: SLA  PZ   NOGX NOGC
    Suggested minimum cutoff for wavefunctions:   0. Ry
    Suggested minimum cutoff for charge density:   0. Ry
    The Pseudo was generated with a Non-Relativistic Calculation
    L component and cutoff radius for Local Potential:  0   0.0000
    Valence configuration: 
    nl pn  l   occ       Rcut    Rcut US       E pseu
    4S  1  0  2.00      0.000      0.000     0.000000
    4P  2  1  3.00      0.000      0.000     0.000000
    Generation configuration: not available.
  </PP_INFO>
    <!-- END OF HUMAN READABLE SECTION -->
  <PP_HEADER generated="Generated by new atomic code, or converted to UPF format" author="" date="" comment="" element="As" pseudo_type="US" relativistic="no" is_ultrasoft="true" is_paw="false" is_coulomb="false" has_so="false" has_wfc="false" has_gipaw="false" paw_as_gipaw="false" core_correction="true" functional="SLA  PZ   NOGX NOGC" z_valence="5.0000000000000000" total_psenergy="-39.410523237800000" wfc_cutoff="0.0000000000000000" rho_cutoff="0.0000000000000000" l_max="2" l_max_rho="0" l_local="0" mesh_size="875" number_of_wfc="2" number_of_proj="6"/>
  <PP_MESH>
    <PP_R>
   0.000000000000000E+00   1.283963911510000E-06   2.589875394180000E-06
   3.918109611090000E-06   5.269048138240000E-06   6.643079074120000E-06
   8.040597151230000E-06   9.462003849480000E-06   1.090770751150000E-05
   1.237812346000000E-05   1.387367411700000E-05   1.539478912520000E-05
   1.694190547170000E-05   1.851546761290000E-05   2.011592760280000E-05
   2.174374522260000E-05   2.339938811280000E-05   2.508333190760000E-05
   2.679606037150000E-05   2.853806553810000E-05   3.030984785190000E-05
   3.211191631160000E-05   3.394478861660000E-05   3.580899131570000E-05
   3.770505995820000E-05   3.963353924800000E-05   4.159498319990000E-05
   4.358995529870000E-05   4.561902866130000E-05   4.768278620120000E-05
   4.978182079610000E-05   5.191673545800000E-05   5.408814350640000E-05
   5.629666874500000E-05   5.854294564040000E-05   6.082761950430000E-05
   6.315134667940000E-05   6.551479472750001E-05   6.791864262150000E-05
   7.036358094050000E-05   7.285031206780000E-05   7.537955039319999E-05
   7.795202251800000E-05   8.056846746350000E-05   8.322963688390000E-05
   8.593629528150000E-05   8.868922022700000E-05   9.148920258240000E-05
   9.433704672850000E-05   9.723357079580000E-05   1.001796069000000E-04
   1.031760013790000E-04   1.062236150400000E-04   1.093233234040000E-04
   1.124760169560000E-04   1.156826014040000E-04   1.189439979380000E-04
   1.222611434950000E-04   1.256349910250000E-04   1.290665097700000E-04
   1.325566855390000E-04   1.361065209920000E-04   1.397170359280000E-04
   1.433892675780000E-04   1.471242709020000E-04   1.509231188960000E-04
   1.547869028950000E-04   1.587167328890000E-04   1.627137378420000E-04
   1.667790660160000E-04   1.709138853020000E-04   1.751193835530000E-04
   1.793967689280000E-04   1.837472702350000E-04   1.881721372910000E-04
   1.926726412740000E-04   1.972500750920000E-04   2.019057537520000E-04
   2.066410147420000E-04   2.114572184090000E-04   2.163557483570000E-04
   2.213380118380000E-04   2.264054401590000E-04   2.315594890960000E-04
   2.368016393060000E-04   2.421333967580000E-04   2.475562931620000E-04
   2.530718864120000E-04   2.586817610310000E-04   2.643875286280000E-04
   2.701908283590000E-04   2.760933273990000E-04   2.820967214230000E-04
   2.882027350890000E-04   2.944131225370000E-04   3.007296678910000E-04
   3.071541857730000E-04   3.136885218220000E-04   3.203345532260000E-04
   3.270941892620000E-04   3.339693718420000E-04   3.409620760730000E-04
   3.480743108230000E-04   3.553081193010000E-04   3.626655796390000E-04
   3.701488054940000E-04   3.777599466500000E-04   3.855011896430000E-04
   3.933747583810000E-04   4.013829147880000E-04   4.095279594520000E-04
   4.178122322880000E-04   4.262381132060000E-04   4.348080227990000E-04
   4.435244230360000E-04   4.523898179710000E-04   4.614067544590000E-04
   4.705778228920000E-04   4.799056579410000E-04   4.893929393129999E-04
   4.990423925180000E-04   5.088567896600000E-04   5.188389502230000E-04
   5.289917418900000E-04   5.393180813610000E-04   5.498209351939999E-04
   5.605033206550000E-04   5.713683065870000E-04   5.824190142900000E-04
   5.936586184190000E-04   6.050903478940000E-04   6.167174868310000E-04
   6.285433754800000E-04   6.405714111920000E-04   6.528050493880000E-04
   6.652478045550000E-04   6.779032512560000E-04   6.907750251570000E-04
   7.038668240690000E-04   7.171824090120000E-04   7.307256052959999E-04
   7.445003036190000E-04   7.585104611860000E-04   7.727601028440000E-04
   7.872533222400000E-04   8.019942829930000E-04   8.169872198990000E-04
   8.322364401360000E-04   8.477463245110000E-04   8.635213287140000E-04
   8.795659845980000E-04   8.958849014819999E-04   9.124827674750001E-04
   9.293643508230000E-04   9.465345012780000E-04   9.639981514930000E-04
   9.817603184350001E-04   9.998261048320000E-04   1.018200700640000E-03
   1.036889384510000E-03   1.055897525350000E-03   1.075230583830000E-03
   1.094894113970000E-03   1.114893764710000E-03   1.135235281570000E-03
   1.155924508270000E-03   1.176967388430000E-03   1.198369967250000E-03
   1.220138393290000E-03   1.242278920190000E-03   1.264797908510000E-03
   1.287701827490000E-03   1.310997257010000E-03   1.334690889390000E-03
   1.358789531340000E-03   1.383300105940000E-03   1.408229654610000E-03
   1.433585339130000E-03   1.459374443680000E-03   1.485604376980000E-03
   1.512282674390000E-03   1.539417000060000E-03   1.567015149150000E-03
   1.595085050090000E-03   1.623634766810000E-03   1.652672501100000E-03
   1.682206594920000E-03   1.712245532860000E-03   1.742797944530000E-03
   1.773872607030000E-03   1.805478447520000E-03   1.837624545740000E-03
   1.870320136640000E-03   1.903574613050000E-03   1.937397528310000E-03
   1.971798599110000E-03   2.006787708210000E-03   2.042374907290000E-03
   2.078570419880000E-03   2.115384644240000E-03   2.152828156380000E-03
   2.190911713110000E-03   2.229646255090000E-03   2.269042910010000E-03
   2.309112995760000E-03   2.349868023700000E-03   2.391319701970000E-03
   2.433479938830000E-03   2.476360846100000E-03   2.519974742630000E-03
   2.564334157860000E-03   2.609451835380000E-03   2.655340736630000E-03
   2.702014044600000E-03   2.749485167640000E-03   2.797767743270000E-03
   2.846875642150000E-03   2.896822972030000E-03   2.947624081800000E-03
   2.999293565650000E-03   3.051846267210000E-03   3.105297283860000E-03
   3.159661971050000E-03   3.214955946690000E-03   3.271195095670000E-03
   3.328395574420000E-03   3.386573815520000E-03   3.445746532460000E-03
   3.505930724410000E-03   3.567143681130000E-03   3.629402987920000E-03
   3.692726530670000E-03   3.757132501000000E-03   3.822639401510000E-03
   3.889266051060000E-03   3.957031590210000E-03   4.025955486670000E-03
   4.096057540940000E-03   4.167357892000000E-03   4.239877023060000E-03
   4.313635767450000E-03   4.388655314640000E-03   4.464957216280000E-03
   4.542563392450000E-03   4.621496137900000E-03   4.701778128460000E-03
   4.783432427610000E-03   4.866482493050000E-03   4.950952183450000E-03
   5.036865765330000E-03   5.124247919980000E-03   5.213123750610000E-03
   5.303518789530000E-03   5.395459005490000E-03   5.488970811120000E-03
   5.584081070570000E-03   5.680817107160000E-03   5.779206711300000E-03
   5.879278148400000E-03   5.981060167060000E-03   6.084582007270000E-03
   6.189873408870000E-03   6.296964620040000E-03   6.405886406000000E-03
   6.516670057880000E-03   6.629347401680000E-03   6.743950807420000E-03
   6.860513198430000E-03   6.979068060840000E-03   7.099649453170000E-03
   7.222292016120000E-03   7.347030982520000E-03   7.473902187460000E-03
   7.602942078590000E-03   7.734187726560000E-03   7.867676835720001E-03
   8.003447754900000E-03   8.141539488470000E-03   8.281991707490000E-03
   8.424844761180000E-03   8.570139688460000E-03   8.717918229739999E-03
   8.868222838939999E-03   9.021096695670000E-03   9.176583717629999E-03
   9.334728573230000E-03   9.495576694430000E-03   9.659174289780000E-03
   9.825568357700000E-03   9.994806699990000E-03   1.016693793550000E-02
   1.034201151440000E-02   1.052007773160000E-02   1.070118774240000E-02
   1.088539357610000E-02   1.107274815140000E-02   1.126330529160000E-02
   1.145711974030000E-02   1.165424717640000E-02   1.185474423100000E-02
   1.205866850290000E-02   1.226607857560000E-02   1.247703403410000E-02
   1.269159548170000E-02   1.290982455780000E-02   1.313178395540000E-02
   1.335753743910000E-02   1.358714986360000E-02   1.382068719200000E-02
   1.405821651520000E-02   1.429980607060000E-02   1.454552526220000E-02
   1.479544468060000E-02   1.504963612260000E-02   1.530817261250000E-02
   1.557112842300000E-02   1.583857909600000E-02   1.611060146500000E-02
   1.638727367680000E-02   1.666867521390000E-02   1.695488691760000E-02
   1.724599101090000E-02   1.754207112240000E-02   1.784321231020000E-02
   1.814950108630000E-02   1.846102544160000E-02   1.877787487100000E-02
   1.910014039910000E-02   1.942791460680000E-02   1.976129165700000E-02
   2.010036732270000E-02   2.044523901360000E-02   2.079600580480000E-02
   2.115276846480000E-02   2.151562948450000E-02   2.188469310690000E-02
   2.226006535690000E-02   2.264185407170000E-02   2.303016893170000E-02
   2.342512149230000E-02   2.382682521570000E-02   2.423539550360000E-02
   2.465094973040000E-02   2.507360727670000E-02   2.550348956400000E-02
   2.594072008900000E-02   2.638542445960000E-02   2.683773043080000E-02
   2.729776794130000E-02   2.776566915100000E-02   2.824156847890000E-02
   2.872560264170000E-02   2.921791069290000E-02   2.971863406320000E-02
   3.022791660070000E-02   3.074590461240000E-02   3.127274690630000E-02
   3.180859483390000E-02   3.235360233400000E-02   3.290792597670000E-02
   3.347172500840000E-02   3.404516139770000E-02   3.462839988180000E-02
   3.522160801390000E-02   3.582495621100000E-02   3.643861780360000E-02
   3.706276908460000E-02   3.769758936070000E-02   3.834326100350000E-02
   3.899996950190000E-02   3.966790351550000E-02   4.034725492900000E-02
   4.103821890670000E-02   4.174099394930000E-02   4.245578195050000E-02
   4.318278825500000E-02   4.392222171770000E-02   4.467429476340000E-02
   4.543922344820000E-02   4.621722752140000E-02   4.700853048840000E-02
   4.781335967530000E-02   4.863194629380000E-02   4.946452550820000E-02
   5.031133650240000E-02   5.117262254860000E-02   5.204863107780000E-02
   5.293961375020000E-02   5.384582652790000E-02   5.476752974830000E-02
   5.570498819900000E-02   5.665847119350000E-02   5.762825264920000E-02
   5.861461116540000E-02   5.961783010380000E-02   6.063819766990000E-02
   6.167600699550000E-02   6.273155622310000E-02   6.380514859160000E-02
   6.489709252339999E-02   6.600770171270000E-02   6.713729521620000E-02
   6.828619754409999E-02   6.945473875390000E-02   7.064325454480000E-02
   7.185208635449999E-02   7.308158145690000E-02   7.433209306209999E-02
   7.560398041810000E-02   7.689760891330000E-02   7.821335018220001E-02
   7.955158221189999E-02   8.091268945040000E-02   8.229706291760000E-02
   8.370510031720001E-02   8.513720615110000E-02   8.659379183550001E-02
   8.807527581940000E-02   8.958208370440000E-02   9.111464836730000E-02
   9.267341008420001E-02   9.425881665720000E-02   9.587132354300000E-02
   9.751139398350001E-02   9.917949913940000E-02   1.008761182250000E-01
   1.026017386460000E-01   1.043568561390000E-01   1.061419749170000E-01
   1.079576078090000E-01   1.098042764110000E-01   1.116825112360000E-01
   1.135928518640000E-01   1.155358470990000E-01   1.175120551260000E-01
   1.195220436700000E-01   1.215663901640000E-01   1.236456819080000E-01
   1.257605162430000E-01   1.279115007190000E-01   1.300992532730000E-01
   1.323244024030000E-01   1.345875873520000E-01   1.368894582900000E-01
   1.392306764980000E-01   1.416119145650000E-01   1.440338565730000E-01
   1.464971982990000E-01   1.490026474140000E-01   1.515509236860000E-01
   1.541427591830000E-01   1.567788984920000E-01   1.594600989230000E-01
   1.621871307330000E-01   1.649607773460000E-01   1.677818355770000E-01
   1.706511158620000E-01   1.735694424880000E-01   1.765376538360000E-01
   1.795566026140000E-01   1.826271561080000E-01   1.857501964280000E-01
   1.889266207650000E-01   1.921573416420000E-01   1.954432871840000E-01
   1.987854013790000E-01   2.021846443520000E-01   2.056419926390000E-01
   2.091584394710000E-01   2.127349950530000E-01   2.163726868610000E-01
   2.200725599350000E-01   2.238356771740000E-01   2.276631196510000E-01
   2.315559869160000E-01   2.355153973140000E-01   2.395424883060000E-01
   2.436384167990000E-01   2.478043594730000E-01   2.520415131230000E-01
   2.563510950010000E-01   2.607343431670000E-01   2.651925168430000E-01
   2.697268967760000E-01   2.743387856060000E-01   2.790295082390000E-01
   2.838004122290000E-01   2.886528681640000E-01   2.935882700610000E-01
   2.986080357660000E-01   3.037136073600000E-01   3.089064515750000E-01
   3.141880602140000E-01   3.195599505830000E-01   3.250236659190000E-01
   3.305807758450000E-01   3.362328768090000E-01   3.419815925510000E-01
   3.478285745650000E-01   3.537755025770000E-01   3.598240850230000E-01
   3.659760595450000E-01   3.722331934860000E-01   3.785972843990000E-01
   3.850701605640000E-01   3.916536815140000E-01   3.983497385660000E-01
   4.051602553680000E-01   4.120871884510000E-01   4.191325277870000E-01
   4.262982973660000E-01   4.335865557760000E-01   4.409993967910000E-01
   4.485389499790000E-01   4.562073813050000E-01   4.640068937640000E-01
   4.719397280020000E-01   4.800081629710000E-01   4.882145165750000E-01
   4.965611463410000E-01   5.050504500940000E-01   5.136848666470000E-01
   5.224668765000000E-01   5.313990025560000E-01   5.404838108409999E-01
   5.497239112450000E-01   5.591219582690000E-01   5.686806517920000E-01
   5.784027378400000E-01   5.882910093800000E-01   5.983483071230000E-01
   6.085775203340000E-01   6.189815876690000E-01   6.295634980150000E-01
   6.403262913500000E-01   6.512730596160000E-01   6.624069476090000E-01
   6.737311538780000E-01   6.852489316490000E-01   6.969635897570000E-01
   7.088784935960000E-01   7.209970660870000E-01   7.333227886630000E-01
   7.458592022640000E-01   7.586099083590000E-01   7.715785699800000E-01
   7.847689127720000E-01   7.981847260660000E-01   8.118298639640000E-01
   8.257082464520000E-01   8.398238605190000E-01   8.541807613090000E-01
   8.687830732810000E-01   8.836349913979999E-01   8.987407823270001E-01
   9.141047856700000E-01   9.297314152070000E-01   9.456251601690000E-01
   9.617905865180000E-01   9.782323382710000E-01   9.949551388230000E-01
   1.011963792310000E+00   1.029263185000000E+00   1.046858286650000E+00
   1.064754152020000E+00   1.082955922230000E+00   1.101468826290000E+00
   1.120298182620000E+00   1.139449400510000E+00   1.158927981740000E+00
   1.178739522140000E+00   1.198889713170000E+00   1.219384343590000E+00
   1.240229301120000E+00   1.261430574110000E+00   1.282994253270000E+00
   1.304926533420000E+00   1.327233715300000E+00   1.349922207330000E+00
   1.372998527450000E+00   1.396469305070000E+00   1.420341282870000E+00
   1.444621318820000E+00   1.469316388100000E+00   1.494433585120000E+00
   1.519980125570000E+00   1.545963348470000E+00   1.572390718310000E+00
   1.599269827150000E+00   1.626608396850000E+00   1.654414281240000E+00
   1.682695468420000E+00   1.711460083020000E+00   1.740716388570000E+00
   1.770472789830000E+00   1.800737835240000E+00   1.831520219360000E+00
   1.862828785380000E+00   1.894672527640000E+00   1.927060594240000E+00
   1.960002289630000E+00   1.993507077330000E+00   2.027584582610000E+00
   2.062244595290000E+00   2.097497072510000E+00   2.133352141640000E+00
   2.169820103130000E+00   2.206911433520000E+00   2.244636788450000E+00
   2.283007005670000E+00   2.322033108200000E+00   2.361726307480000E+00
   2.402098006620000E+00   2.443159803600000E+00   2.484923494700000E+00
   2.527401077820000E+00   2.570604755930000E+00   2.614546940630000E+00
   2.659240255640000E+00   2.704697540500000E+00   2.750931854210000E+00
   2.797956478980000E+00   2.845784924090000E+00   2.894430929720000E+00
   2.943908470920000E+00   2.994231761630000E+00   3.045415258770000E+00
   3.097473666360000E+00   3.150421939770000E+00   3.204275290030000E+00
   3.259049188140000E+00   3.314759369610000E+00   3.371421838870000E+00
   3.429052873970000E+00   3.487669031180000E+00   3.547287149790000E+00
   3.607924356940000E+00   3.669598072520000E+00   3.732326014190000E+00
   3.796126202480000E+00   3.861016965950000E+00   3.927016946460000E+00
   3.994145104530000E+00   4.062420724770000E+00   4.131863421450000E+00
   4.202493144120000E+00   4.274330183330000E+00   4.347395176460000E+00
   4.421709113690000E+00   4.497293343950000E+00   4.574169581150000E+00
   4.652359910330000E+00   4.731886794060000E+00   4.812773078880000E+00
   4.895042001860000E+00   4.978717197260000E+00   5.063822703350000E+00
   5.150382969280000E+00   5.238422862160000E+00   5.327967674140000E+00
   5.419043129710000E+00   5.511675393090000E+00   5.605891075730000E+00
   5.701717243970000E+00   5.799181426830000E+00   5.898311623870000E+00
   5.999136313280000E+00   6.101684460040000E+00   6.205985524260000E+00
   6.312069469600000E+00   6.419966771940000E+00   6.529708428070000E+00
   6.641325964670000E+00   6.754851447270000E+00   6.870317489560000E+00
   6.987757262700000E+00   7.107204504860000E+00   7.228693530930000E+00
   7.352259242340000E+00   7.477937137140000E+00   7.605763320150000E+00
   7.735774513370000E+00   7.868008066490000E+00   8.002501967650000E+00
   8.139294854350000E+00   8.278426024540000E+00   8.419935447909999E+00
   8.563863777380000E+00   8.710252360769999E+00   8.859143252699999E+00
   9.010579226620001E+00   9.164603787180001E+00   9.321261182640001E+00
   9.480596417639999E+00   9.642655266120000E+00   9.807484284439999E+00
   9.975130824780001E+00   1.014564304880000E+01   1.031906994130000E+01
   1.049546132440000E+01   1.067486787210000E+01   1.085734112440000E+01
   1.104293350220000E+01   1.123169832270000E+01   1.142368981440000E+01
   1.161896313270000E+01   1.181757437580000E+01   1.201958060100000E+01
   1.222503984060000E+01   1.243401111920000E+01   1.264655447020000E+01
   1.286273095310000E+01   1.308260267130000E+01   1.330623278970000E+01
   1.353368555290000E+01   1.376502630360000E+01   1.400032150150000E+01
   1.423963874250000E+01   1.448304677770000E+01   1.473061553360000E+01
   1.498241613190000E+01   1.523852091000000E+01   1.549900344180000E+01
   1.576393855900000E+01   1.603340237230000E+01   1.630747229330000E+01
   1.658622705720000E+01   1.686974674480000E+01   1.715811280570000E+01
   1.745140808200000E+01   1.774971683170000E+01   1.805312475310000E+01
   1.836171900960000E+01   1.867558825410000E+01   1.899482265540000E+01
   1.931951392320000E+01   1.964975533510000E+01   1.998564176310000E+01
   2.032726970080000E+01   2.067473729120000E+01   2.102814435530000E+01
   2.138759241980000E+01   2.175318474740000E+01   2.212502636560000E+01
   2.250322409730000E+01   2.288788659140000E+01   2.327912435400000E+01
   2.367704978010000E+01   2.408177718600000E+01   2.449342284210000E+01
   2.491210500620000E+01   2.533794395760000E+01   2.577106203150000E+01
   2.621158365450000E+01   2.665963537980000E+01   2.711534592400000E+01
   2.757884620400000E+01   2.805026937440000E+01   2.852975086600000E+01
   2.901742842450000E+01   2.951344215030000E+01   3.001793453840000E+01
   3.053105051990000E+01   3.105293750300000E+01   3.158374541560000E+01
   3.212362674880000E+01   3.267273659980000E+01   3.323123271750000E+01
   3.379927554680000E+01   3.437702827550000E+01   3.496465688080000E+01
   3.556233017700000E+01   3.617021986400000E+01   3.678850057690000E+01
   3.741734993570000E+01   3.805694859670000E+01   3.870748030410000E+01
   3.936913194320000E+01   4.004209359360000E+01   4.072655858430000E+01
   4.142272354870000E+01   4.213078848160000E+01   4.285095679640000E+01
   4.358343538340000E+01   4.432843466960000E+01   4.508616867890000E+01
   4.585685509350000E+01   4.664071531690000E+01   4.743797453680000E+01
   4.824886179040000E+01   4.907361002990000E+01   4.991245618950000E+01
   5.076564125350000E+01   5.163341032550000E+01   5.251601269870000E+01
   5.341370192770000E+01   5.432673590120000E+01   5.525537691630000E+01
   5.619989175350000E+01   5.716055175360000E+01   5.813763289580000E+01
   5.913141587640000E+01   6.014218619020000E+01   6.117023421180000E+01
   6.221585527960000E+01   6.327934978030000E+01   6.436102323519999E+01
   6.546118638830001E+01   6.658015529500000E+01   6.771825141360000E+01
   6.887580169700000E+01   7.005313868690000E+01   7.125060060960000E+01
   7.246853147269999E+01   7.370728116420000E+01   7.496720555269999E+01
   7.624866659040001E+01   7.755203241600000E+01   7.887767746150000E+01
   8.022598255890000E+01   8.159733505020000E+01   8.299212889850000E+01
   8.441076480110000E+01   8.585365030449999E+01   8.732119992190000E+01
   8.881383525190000E+01   9.033198509970001E+01   9.187608560040000E+01
   9.344658034420000E+01   9.504392050380000E+01   9.666856496420000E+01
   9.832098045430000E+01   1.000016416810000E+02   1.017110314660000E+02
   1.034496408830000E+02   1.052179694030000E+02   1.070165250300000E+02
   1.088458244550000E+02   1.107063932020000E+02   1.125987657740000E+02
   1.145234858150000E+02   1.164811062580000E+02   1.184721894910000E+02
   1.204973075130000E+02   1.225570421010000E+02   1.246519849780000E+02
   1.267827379790000E+02   1.289499132290000E+02   1.311541333150000E+02
   1.333960314680000E+02   1.356762517400000E+02   1.379954491960000E+02
   1.403542900960000E+02   1.427534520880000E+02   1.451936244070000E+02
   1.476755080660000E+02   1.501998160630000E+02   1.527672735810000E+02
   1.553786182030000E+02   1.580346001170000E+02   1.607359823340000E+02
   1.634835409110000E+02   1.662780651670000E+02   1.691203579150000E+02
   1.720112356910000E+02   1.749515289880000E+02   1.779420824950000E+02
   1.809837553410000E+02   1.840774213390000E+02   1.872239692400000E+02
   1.904243029860000E+02   1.936793419710000E+02   1.969900213040000E+02
   2.003572920800000E+02   2.037821216510000E+02
    </PP_R>
    <PP_RAB>
   1.273113598700000E-06   1.294875698890000E-06   1.317009791820000E-06
   1.339522236170000E-06   1.362419499350000E-06   1.385708159280000E-06
   1.409394906350000E-06   1.433486545300000E-06   1.457989997200000E-06
   1.482912301410000E-06   1.508260617630000E-06   1.534042227940000E-06
   1.560264538900000E-06   1.586935083660000E-06   1.614061524170000E-06
   1.641651653320000E-06   1.669713397220000E-06   1.698254817470000E-06
   1.727284113470000E-06   1.756809624770000E-06   1.786839833480000E-06
   1.817383366690000E-06   1.848448998980000E-06   1.880045654900000E-06
   1.912182411550000E-06   1.944868501210000E-06   1.978113313950000E-06
   2.011926400370000E-06   2.046317474310000E-06   2.081296415670000E-06
   2.116873273210000E-06   2.153058267480000E-06   2.189861793720000E-06
   2.227294424890000E-06   2.265366914640000E-06   2.304090200470000E-06
   2.343475406820000E-06   2.383533848320000E-06   2.424277032960000E-06
   2.465716665490000E-06   2.507864650700000E-06   2.550733096890000E-06
   2.594334319340000E-06   2.638680843840000E-06   2.683785410290000E-06
   2.729660976350000E-06   2.776320721190000E-06   2.823778049250000E-06
   2.872046594100000E-06   2.921140222360000E-06   2.971073037670000E-06
   3.021859384780000E-06   3.073513853620000E-06   3.126051283510000E-06
   3.179486767440000E-06   3.233835656400000E-06   3.289113563760000E-06
   3.345336369800000E-06   3.402520226240000E-06   3.460681560910000E-06
   3.519837082420000E-06   3.580003785010000E-06   3.641198953410000E-06
   3.703440167810000E-06   3.766745308910000E-06   3.831132563050000E-06
   3.896620427430000E-06   3.963227715460000E-06   4.030973562120000E-06
   4.099877429480000E-06   4.169959112300000E-06   4.241238743670000E-06
   4.313736800860000E-06   4.387474111160000E-06   4.462471857880000E-06
   4.538751586400000E-06   4.616335210430000E-06   4.695245018230000E-06
   4.775503679070000E-06   4.857134249700000E-06   4.940160181020000E-06
   5.024605324760000E-06   5.110493940380000E-06   5.197850702020000E-06
   5.286700705580000E-06   5.377069475950000E-06   5.468982974330000E-06
   5.562467605690000E-06   5.657550226350000E-06   5.754258151720000E-06
   5.852619164100000E-06   5.952661520710000E-06   6.054413961800000E-06
   6.157905718850000E-06   6.263166523060000E-06   6.370226613810000E-06
   6.479116747400000E-06   6.589868205850000E-06   6.702512805920000E-06
   6.817082908220000E-06   6.933611426520000E-06   7.052131837220000E-06
   7.172678188920000E-06   7.295285112280000E-06   7.419987829870000E-06
   7.546822166390000E-06   7.675824558870000E-06   7.807032067220000E-06
   7.940482384810001E-06   8.076213849340000E-06   8.214265453820000E-06
   8.354676857810001E-06   8.497488398790000E-06   8.642741103759999E-06
   8.790476700999999E-06   8.940737632100001E-06   9.093567064099999E-06
   9.249008901960001E-06   9.407107801100000E-06   9.567909180270000E-06
   9.731459234599999E-06   9.897804948860000E-06   1.006699411100000E-05
   1.023907532560000E-05   1.041409802850000E-05   1.059211250030000E-05
   1.077316988100000E-05   1.095732218490000E-05   1.114462231550000E-05
   1.133512408040000E-05   1.152888220710000E-05   1.172595235850000E-05
   1.192639114920000E-05   1.213025616130000E-05   1.233760596120000E-05
   1.254850011660000E-05   1.276299921320000E-05   1.298116487260000E-05
   1.320305976940000E-05   1.342874764970000E-05   1.365829334950000E-05
   1.389176281260000E-05   1.412922311030000E-05   1.437074246050000E-05
   1.461639024680000E-05   1.486623703930000E-05   1.512035461390000E-05
   1.537881597390000E-05   1.564169537010000E-05   1.590906832270000E-05
   1.618101164270000E-05   1.645760345430000E-05   1.673892321690000E-05
   1.702505174820000E-05   1.731607124750000E-05   1.761206531890000E-05
   1.791311899590000E-05   1.821931876530000E-05   1.853075259250000E-05
   1.884750994630000E-05   1.916968182500000E-05   1.949736078230000E-05
   1.983064095410000E-05   2.016961808530000E-05   2.051438955750000E-05
   2.086505441680000E-05   2.122171340250000E-05   2.158446897580000E-05
   2.195342534940000E-05   2.232868851720000E-05   2.271036628520000E-05
   2.309856830200000E-05   2.349340609040000E-05   2.389499307980000E-05
   2.430344463840000E-05   2.471887810620000E-05   2.514141282950000E-05
   2.557117019410000E-05   2.600827366110000E-05   2.645284880180000E-05
   2.690502333410000E-05   2.736492715900000E-05   2.783269239790000E-05
   2.830845343080000E-05   2.879234693450000E-05   2.928451192240000E-05
   2.978508978380000E-05   3.029422432520000E-05   3.081206181100000E-05
   3.133875100590000E-05   3.187444321760000E-05   3.241929234000000E-05
   3.297345489770000E-05   3.353709009100000E-05   3.411035984130000E-05
   3.469342883790000E-05   3.528646458530000E-05   3.588963745110000E-05
   3.650312071530000E-05   3.712709061960000E-05   3.776172641870000E-05
   3.840721043110000E-05   3.906372809180000E-05   3.973146800560000E-05
   4.041062200140000E-05   4.110138518690000E-05   4.180395600500000E-05
   4.251853629080000E-05   4.324533132920000E-05   4.398454991450000E-05
   4.473640440990000E-05   4.550111080850000E-05   4.627888879580000E-05
   4.706996181230000E-05   4.787455711800000E-05   4.869290585760000E-05
   4.952524312670000E-05   5.037180803990000E-05   5.123284379880000E-05
   5.210859776220000E-05   5.299932151750000E-05   5.390527095230000E-05
   5.482670632830000E-05   5.576389235610000E-05   5.671709827110000E-05
   5.768659791090000E-05   5.867266979400000E-05   5.967559719970000E-05
   6.069566824980000E-05   6.173317599080000E-05   6.278841847870000E-05
   6.386169886419999E-05   6.495332548010000E-05   6.606361192940000E-05
   6.719287717610000E-05   6.834144563610000E-05   6.950964727100000E-05
   7.069781768250000E-05   7.190629820890000E-05   7.313543602340000E-05
   7.438558423339999E-05   7.565710198239999E-05   7.695035455270000E-05
   7.826571347080000E-05   7.960355661389999E-05   8.096426831840000E-05
   8.234823949050000E-05   8.375586771820000E-05   8.518755738610000E-05
   8.664371979070000E-05   8.812477325930000E-05   8.963114327010000E-05
   9.116326257380000E-05   9.272157131880000E-05   9.430651717710000E-05
   9.591855547269999E-05   9.755814931330000E-05   9.922576972230000E-05
   1.009218957750000E-04   1.026470147350000E-04   1.044016221970000E-04
   1.061862222240000E-04   1.080013274980000E-04   1.098474594630000E-04
   1.117251484780000E-04   1.136349339660000E-04   1.155773645720000E-04
   1.175529983180000E-04   1.195624027660000E-04   1.216061551780000E-04
   1.236848426850000E-04   1.257990624550000E-04   1.279494218610000E-04
   1.301365386590000E-04   1.323610411680000E-04   1.346235684410000E-04
   1.369247704610000E-04   1.392653083180000E-04   1.416458544040000E-04
   1.440670926020000E-04   1.465297184880000E-04   1.490344395260000E-04
   1.515819752760000E-04   1.541730575930000E-04   1.568084308470000E-04
   1.594888521280000E-04   1.622150914700000E-04   1.649879320700000E-04
   1.678081705090000E-04   1.706766169880000E-04   1.735940955570000E-04
   1.765614443500000E-04   1.795795158300000E-04   1.826491770300000E-04
   1.857713098030000E-04   1.889468110790000E-04   1.921765931180000E-04
   1.954615837730000E-04   1.988027267590000E-04   2.022009819210000E-04