<UPF version="2.0.1">
  <PP_INFO>
    Generated by new atomic code, or converted to UPF format
    Author: 
    Generation date: 
    Pseudopotential type: US
    Element: Au
    Functional: SLA  PZ   NOGX NOGC
    Suggested minimum cutoff for wavefunctions:   0. Ry
    Suggested minimum cutoff for charge density:   0. Ry
    The Pseudo was generated with a Non-Relativistic Calculation
    L component and cutoff radius for Local Potential:  0   0.0000
    Valence configuration: 
    nl pn  l   occ       Rcut    Rcut US       E pseu
    5D  3  2 10.00      0.000      0.000     0.000000
    6S  1  0  1.00      0.000      0.000     0.000000
    6P  2  1  0.00      0.000      0.000     0.000000
    Generation configuration: not available.
  </PP_INFO>
    <!-- END OF HUMAN READABLE SECTION -->
  <PP_HEADER generated="Generated by new atomic code, or converted to UPF format" author="" date="" comment="" element="Au" pseudo_type="US" relativistic="no" is_ultrasoft="true" is_paw="false" is_coulomb="false" has_so="false" has_wfc="false" has_gipaw="false" paw_as_gipaw="false" core_correction="true" functional="SLA  PZ   NOGX NOGC" z_valence="11.000000000000000" total_psenergy="-114.58691331300000" wfc_cutoff="0.0000000000000000" rho_cutoff="0.0000000000000000" l_max="3" l_max_rho="0" l_local="0" mesh_size="985" number_of_wfc="3" number_of_proj="7"/>
  <PP_MESH>
    <PP_R>
   0.000000000000000E+00   1.939922732450000E-07   3.912448447270000E-07
   5.918125080950000E-07   7.957509778780000E-07   1.003116904960000E-06
   1.213967892330000E-06   1.428362511050000E-06   1.646360316570000E-06
   1.868021865230000E-06   2.093408731110000E-06   2.322583523120000E-06
   2.555609902410000E-06   2.792552600010000E-06   3.033477434870000E-06
   3.278451332110000E-06   3.527542341600000E-06   3.780819656890000E-06
   4.038353634420000E-06   4.300215813060000E-06   4.566478933990000E-06
   4.837216960900000E-06   5.112505100540000E-06   5.392419823610000E-06
   5.677038885990000E-06   5.966441350370000E-06   6.260707608180000E-06
   6.559919401940000E-06   6.864159847960000E-06   7.173513459440000E-06
   7.488066169910000E-06   7.807905357160000E-06   8.133119867469999E-06
   8.463800040270000E-06   8.800037733320001E-06   9.141926348120000E-06
   9.489560855940000E-06   9.843037824150000E-06   1.020245544310000E-05
   1.056791355320000E-05   1.093951367320000E-05   1.131735902750000E-05
   1.170155457560000E-05   1.209220704110000E-05   1.248942494100000E-05
   1.289331861610000E-05   1.330400026180000E-05   1.372158395890000E-05
   1.414618570560000E-05   1.457792344950000E-05   1.501691712060000E-05
   1.546328866430000E-05   1.591716207570000E-05   1.637866343360000E-05
   1.684792093580000E-05   1.732506493470000E-05   1.781022797320000E-05
   1.830354482200000E-05   1.880515251670000E-05   1.931519039610000E-05
   1.983380014070000E-05   2.036112581190000E-05   2.089731389260000E-05
   2.144251332730000E-05   2.199687556380000E-05   2.256055459520000E-05
   2.313370700270000E-05   2.371649199890000E-05   2.430907147230000E-05
   2.491161003210000E-05   2.552427505400000E-05   2.614723672660000E-05
   2.678066809900000E-05   2.742474512830000E-05   2.807964672890000E-05
   2.874555482220000E-05   2.942265438690000E-05   3.011113351070000E-05
   3.081118344200000E-05   3.152299864370000E-05   3.224677684700000E-05
   3.298271910580000E-05   3.373102985340000E-05   3.449191695860000E-05
   3.526559178390000E-05   3.605226924390000E-05   3.685216786530000E-05
   3.766550984710000E-05   3.849252112300000E-05   3.933343142370000E-05
   4.018847434060000E-05   4.105788739140000E-05   4.194191208510000E-05
   4.284079398980000E-05   4.375478280090000E-05   4.468413240990000E-05
   4.562910097540000E-05   4.658995099490000E-05   4.756694937720000E-05
   4.856036751720000E-05   4.957048137060000E-05   5.059757153120000E-05
   5.164192330830000E-05   5.270382680640000E-05   5.378357700560000E-05
   5.488147384340000E-05   5.599782229810000E-05   5.713293247380000E-05
   5.828711968620000E-05   5.946070455010000E-05   6.065401306900000E-05
   6.186737672519999E-05   6.310113257180001E-05   6.435562332680000E-05
   6.563119746790001E-05   6.692820932940000E-05   6.824701920080001E-05
   6.958799342660000E-05   7.095150450830000E-05   7.233793120770000E-05
   7.374765865230000E-05   7.518107844209999E-05   7.663858875840000E-05
   7.812059447469999E-05   7.962750726860000E-05   8.115974573680000E-05
   8.271773551100001E-05   8.430190937609999E-05   8.591270739050000E-05
   8.755057700849999E-05   8.921597320450000E-05   9.090935859910001E-05
   9.263120358820000E-05   9.438198647300000E-05   9.616219359340000E-05
   9.797231946290000E-05   9.981286690570000E-05   1.016843471970000E-04
   1.035872802040000E-04   1.055221945320000E-04   1.074896276700000E-04
   1.094901261390000E-04   1.115242456460000E-04   1.135925512380000E-04
   1.156956174570000E-04   1.178340285010000E-04   1.200083783880000E-04
   1.222192711180000E-04   1.244673208410000E-04   1.267531520310000E-04
   1.290773996540000E-04   1.314407093520000E-04   1.338437376120000E-04
   1.362871519600000E-04   1.387716311360000E-04   1.412978652910000E-04
   1.438665561710000E-04   1.464784173190000E-04   1.491341742680000E-04
   1.518345647460000E-04   1.545803388780000E-04   1.573722593980000E-04
   1.602111018560000E-04   1.630976548390000E-04   1.660327201850000E-04
   1.690171132080000E-04   1.720516629270000E-04   1.751372122910000E-04
   1.782746184170000E-04   1.814647528270000E-04   1.847085016890000E-04
   1.880067660670000E-04   1.913604621660000E-04   1.947705215890000E-04
   1.982378915980000E-04   2.017635353720000E-04   2.053484322810000E-04
   2.089935781510000E-04   2.126999855470000E-04   2.164686840510000E-04
   2.203007205470000E-04   2.241971595140000E-04   2.281590833210000E-04
   2.321875925300000E-04   2.362838061940000E-04   2.404488621790000E-04
   2.446839174720000E-04   2.489901485020000E-04   2.533687514740000E-04
   2.578209426940000E-04   2.623479589110000E-04   2.669510576570000E-04
   2.716315176030000E-04   2.763906389040000E-04   2.812297435700000E-04
   2.861501758290000E-04   2.911533024970000E-04   2.962405133650000E-04
   3.014132215800000E-04   3.066728640370000E-04   3.120209017840000E-04
   3.174588204200000E-04   3.229881305140000E-04   3.286103680190000E-04
   3.343270947060000E-04   3.401398985890000E-04   3.460503943760000E-04
   3.520602239070000E-04   3.581710566190000E-04   3.643845900050000E-04
   3.707025500860000E-04   3.771266918910000E-04   3.836587999450000E-04
   3.903006887660000E-04   3.970542033650000E-04   4.039212197610000E-04
   4.109036455030000E-04   4.180034202000000E-04   4.252225160560000E-04
   4.325629384210000E-04   4.400267263510000E-04   4.476159531660000E-04
   4.553327270340000E-04   4.631791915530000E-04   4.711575263480000E-04
   4.792699476730000E-04   4.875187090310000E-04   4.959061017980000E-04
   5.044344558580000E-04   5.131061402550000E-04   5.219235638450000E-04
   5.308891759680000E-04   5.400054671310000E-04   5.492749696950000E-04
   5.587002585820000E-04   5.682839519880000E-04   5.780287121120000E-04
   5.879372458930000E-04   5.980123057680000E-04   6.082566904270000E-04
   6.186732455990000E-04   6.292648648390000E-04   6.400344903310000E-04
   6.509851137070000E-04   6.621197768780000E-04   6.734415728770000E-04
   6.849536467200000E-04   6.966591962790000E-04   7.085614731710000E-04
   7.206637836620000E-04   7.329694895810000E-04   7.454820092590000E-04
   7.582048184770000E-04   7.711414514300000E-04   7.842955017100000E-04
   7.976706233060000E-04   8.112705316140000E-04   8.250990044740000E-04
   8.391598832180000E-04   8.534570737350001E-04   8.679945475600000E-04
   8.827763429730000E-04   8.978065661240000E-04   9.130893921700000E-04
   9.286290664400000E-04   9.444299056100000E-04   9.604962989040000E-04
   9.768327093110001E-04   9.934436748290001E-04   1.010333809720000E-03
   1.027507805800000E-03   1.044970433730000E-03   1.062726544360000E-03
   1.080781070050000E-03   1.099139026060000E-03   1.117805511950000E-03
   1.136785712960000E-03   1.156084901500000E-03   1.175708438590000E-03
   1.195661775320000E-03   1.215950454420000E-03   1.236580111760000E-03
   1.257556477940000E-03   1.278885379860000E-03   1.300572742350000E-03
   1.322624589830000E-03   1.345047047930000E-03   1.367846345280000E-03
   1.391028815150000E-03   1.414600897270000E-03   1.438569139580000E-03
   1.462940200100000E-03   1.487720848710000E-03   1.512917969090000E-03
   1.538538560600000E-03   1.564589740240000E-03   1.591078744600000E-03
   1.618012931930000E-03   1.645399784100000E-03   1.673246908770000E-03
   1.701562041410000E-03   1.730353047520000E-03   1.759627924790000E-03
   1.789394805330000E-03   1.819661957890000E-03   1.850437790220000E-03
   1.881730851360000E-03   1.913549834010000E-03   1.945903577010000E-03
   1.978801067700000E-03   2.012251444480000E-03   2.046263999350000E-03
   2.080848180460000E-03   2.116013594730000E-03   2.151770010580000E-03
   2.188127360570000E-03   2.225095744190000E-03   2.262685430680000E-03
   2.300906861860000E-03   2.339770655040000E-03   2.379287605970000E-03
   2.419468691840000E-03   2.460325074310000E-03   2.501868102640000E-03
   2.544109316820000E-03   2.587060450810000E-03   2.630733435750000E-03
   2.675140403310000E-03   2.720293689030000E-03   2.766205835790000E-03
   2.812889597250000E-03   2.860357941440000E-03   2.908624054300000E-03
   2.957701343400000E-03   3.007603441630000E-03   3.058344211010000E-03
   3.109937746530000E-03   3.162398380050000E-03   3.215740684320000E-03
   3.269979476970000E-03   3.325129824690000E-03   3.381207047370000E-03
   3.438226722390000E-03   3.496204688900000E-03   3.555157052270000E-03
   3.615100188540000E-03   3.676050748960000E-03   3.738025664640000E-03
   3.801042151220000E-03   3.865117713700000E-03   3.930270151250000E-03
   3.996517562200000E-03   4.063878349010000E-03   4.132371223470000E-03
   4.202015211800000E-03   4.272829660020000E-03   4.344834239240000E-03
   4.418048951210000E-03   4.492494133820000E-03   4.568190466760000E-03
   4.645158977290000E-03   4.723421046030000E-03   4.802998412960000E-03
   4.883913183400000E-03   4.966187834220000E-03   5.049845219990000E-03
   5.134908579430000E-03   5.221401541790000E-03   5.309348133460000E-03
   5.398772784600000E-03   5.489700335970000E-03   5.582156045810000E-03
   5.676165596860000E-03   5.771755103480000E-03   5.868951118930000E-03
   5.967780642730000E-03   6.068271128150000E-03   6.170450489880000E-03
   6.274347111720000E-03   6.379989854510000E-03   6.487408064140000E-03
   6.596631579690000E-03   6.707690741730000E-03   6.820616400730000E-03
   6.935439925680000E-03   7.052193212720000E-03   7.170908694070000E-03
   7.291619347020000E-03   7.414358703090000E-03   7.539160857330000E-03
   7.666060477810000E-03   7.795092815240000E-03   7.926293712750001E-03
   8.059699615899999E-03   8.195347582730000E-03   8.333275294110000E-03
   8.473521064179999E-03   8.616123850990001E-03   8.761123267350001E-03
   8.908559591810000E-03   9.058473779850000E-03   9.210907475260001E-03
   9.365903021719999E-03   9.523503474550001E-03   9.683752612650001E-03
   9.846694950710000E-03   1.001237575150000E-02   1.018084103860000E-02
   1.035213760900000E-02   1.052631304620000E-02   1.070341573320000E-02
   1.088349486660000E-02   1.106660046930000E-02   1.125278340530000E-02
   1.144209539330000E-02   1.163458902110000E-02   1.183031776030000E-02
   1.202933598150000E-02   1.223169896860000E-02   1.243746293490000E-02
   1.264668503840000E-02   1.285942339770000E-02   1.307573710820000E-02
   1.329568625840000E-02   1.351933194660000E-02   1.374673629820000E-02
   1.397796248240000E-02   1.421307473030000E-02   1.445213835230000E-02
   1.469521975650000E-02   1.494238646710000E-02   1.519370714310000E-02
   1.544925159740000E-02   1.570909081620000E-02   1.597329697880000E-02
   1.624194347750000E-02   1.651510493800000E-02   1.679285724020000E-02
   1.707527753940000E-02   1.736244428740000E-02   1.765443725470000E-02
   1.795133755220000E-02   1.825322765430000E-02   1.856019142110000E-02
   1.887231412250000E-02   1.918968246100000E-02   1.951238459680000E-02
   1.984051017120000E-02   2.017415033240000E-02   2.051339776050000E-02
   2.085834669280000E-02   2.120909295090000E-02   2.156573396650000E-02
   2.192836880890000E-02   2.229709821220000E-02   2.267202460370000E-02
   2.305325213200000E-02   2.344088669600000E-02   2.383503597470000E-02
   2.423580945630000E-02   2.464331846950000E-02   2.505767621380000E-02
   2.547899779120000E-02   2.590740023830000E-02   2.634300255840000E-02
   2.678592575500000E-02   2.723629286520000E-02   2.769422899390000E-02
   2.815986134840000E-02   2.863331927420000E-02   2.911473429020000E-02
   2.960424012610000E-02   3.010197275870000E-02   3.060807045050000E-02
   3.112267378720000E-02   3.164592571770000E-02   3.217797159290000E-02
   3.271895920700000E-02   3.326903883760000E-02   3.382836328820000E-02
   3.439708793030000E-02   3.497537074670000E-02   3.556337237510000E-02
   3.616125615310000E-02   3.676918816350000E-02   3.738733728010000E-02
   3.801587521490000E-02   3.865497656600000E-02   3.930481886550000E-02
   3.996558262940000E-02   4.063745140740000E-02   4.132061183410000E-02
   4.201525368060000E-02   4.272156990750000E-02   4.343975671830000E-02
   4.417001361390000E-02   4.491254344810000E-02   4.566755248410000E-02
   4.643525045130000E-02   4.721585060420000E-02   4.800956978120000E-02
   4.881662846500000E-02   4.963725084360000E-02   5.047166487300000E-02
   5.132010234020000E-02   5.218279892790000E-02   5.305999427940000E-02
   5.395193206590000E-02   5.485886005340000E-02   5.578103017240000E-02
   5.671869858700000E-02   5.767212576680000E-02   5.864157655880000E-02
   5.962732026110000E-02   6.062963069770000E-02   6.164878629470000E-02
   6.268507015730000E-02   6.373877014900001E-02   6.481017897080001E-02
   6.589959424319999E-02   6.700731858870000E-02   6.813365971540000E-02
   6.927893050330000E-02   7.044344909040000E-02   7.162753896170000E-02
   7.283152903850000E-02   7.405575377030001E-02   7.530055322750000E-02
   7.656627319550000E-02   7.785326527160000E-02   7.916188696170000E-02
   8.049250178020000E-02   8.184547935100001E-02   8.322119550990000E-02
   8.462003240900000E-02   8.604237862330000E-02   8.748862925790001E-02
   8.895918605850001E-02   9.045445752260001E-02   9.197485901290001E-02
   9.352081287300000E-02   9.509274854440000E-02   9.669110268599999E-02
   9.831631929550000E-02   9.996884983220000E-02   1.016491533430000E-01
   1.033576965900000E-01   1.050949541790000E-01   1.068614086930000E-01
   1.086575508250000E-01   1.104838795160000E-01   1.123409020900000E-01
   1.142291343980000E-01   1.161491009630000E-01   1.181013351200000E-01
   1.200863791700000E-01   1.221047845250000E-01   1.241571118680000E-01
   1.262439313020000E-01   1.283658225130000E-01   1.305233749290000E-01
   1.327171878830000E-01   1.349478707830000E-01   1.372160432760000E-01
   1.395223354260000E-01   1.418673878840000E-01   1.442518520680000E-01
   1.466763903450000E-01   1.491416762130000E-01   1.516483944900000E-01
   1.541972415030000E-01   1.567889252810000E-01   1.594241657520000E-01
   1.621036949460000E-01   1.648282571920000E-01   1.675986093320000E-01
   1.704155209250000E-01   1.732797744640000E-01   1.761921655960000E-01
   1.791535033340000E-01   1.821646102930000E-01   1.852263229110000E-01
   1.883394916820000E-01   1.915049813970000E-01   1.947236713770000E-01
   1.979964557240000E-01   2.013242435670000E-01   2.047079593110000E-01
   2.081485429000000E-01   2.116469500740000E-01   2.152041526350000E-01
   2.188211387160000E-01   2.224989130620000E-01   2.262384972970000E-01
   2.300409302210000E-01   2.339072680890000E-01   2.378385849090000E-01
   2.418359727380000E-01   2.459005419870000E-01   2.500334217300000E-01
   2.542357600150000E-01   2.585087241870000E-01   2.628535012050000E-01
   2.672712979820000E-01   2.717633417110000E-01   2.763308802110000E-01
   2.809751822720000E-01   2.856975380080000E-01   2.904992592140000E-01
   2.953816797340000E-01   3.003461558260000E-01   3.053940665430000E-01
   3.105268141160000E-01   3.157458243400000E-01   3.210525469740000E-01
   3.264484561420000E-01   3.319350507420000E-01   3.375138548640000E-01
   3.431864182110000E-01   3.489543165320000E-01   3.548191520580000E-01
   3.607825539470000E-01   3.668461787380000E-01   3.730117108110000E-01
   3.792808628540000E-01   3.856553763360000E-01   3.921370219980000E-01
   3.987276003390000E-01   4.054289421170000E-01   4.122429088580000E-01
   4.191713933760000E-01   4.262163202940000E-01   4.333796465810000E-01
   4.406633620970000E-01   4.480694901410000E-01   4.556000880210000E-01
   4.632572476170000E-01   4.710430959660000E-01   4.789597958550000E-01
   4.870095464190000E-01   4.951945837490000E-01   5.035171815210000E-01
   5.119796516220000E-01   5.205843447900000E-01   5.293336512750000E-01
   5.382300014950000E-01   5.472758667160000E-01   5.564737597370000E-01
   5.658262355870000E-01   5.753358922350000E-01   5.850053713159999E-01
   5.948373588560000E-01   6.048345860270000E-01   6.149998299010000E-01
   6.253359142220000E-01   6.358457101910000E-01   6.465321372640001E-01
   6.573981639599999E-01   6.684468086910000E-01   6.796811405960000E-01
   6.911042803950000E-01   7.027194012550000E-01   7.145297296730000E-01
   7.265385463730000E-01   7.387491872140000E-01   7.511650441190000E-01
   7.637895660180000E-01   7.766262598020000E-01   7.896786913029999E-01
   8.029504862800000E-01   8.164453314290000E-01   8.301669754040000E-01
   8.441192298600000E-01   8.583059705150000E-01   8.727311382200000E-01
   8.873987400600000E-01   9.023128504620000E-01   9.174776123310000E-01
   9.328972381980000E-01   9.485760113920000E-01   9.645182872280000E-01
   9.807284942190000E-01   9.972111353040000E-01   1.013970789100000E+00
   1.031012111180000E+00   1.048339835340000E+00   1.065958774960000E+00
   1.083873824310000E+00   1.102089959890000E+00   1.120612241860000E+00
   1.139445815420000E+00   1.158595912250000E+00   1.178067851930000E+00
   1.197867043460000E+00   1.217998986740000E+00   1.238469274110000E+00
   1.259283591900000E+00   1.280447721990000E+00   1.301967543440000E+00
   1.323849034120000E+00   1.346098272360000E+00   1.368721438650000E+00
   1.391724817340000E+00   1.415114798420000E+00   1.438897879250000E+00
   1.463080666400000E+00   1.487669877450000E+00   1.512672342910000E+00
   1.538095008060000E+00   1.563944934920000E+00   1.590229304200000E+00
   1.616955417270000E+00   1.644130698220000E+00   1.671762695930000E+00
   1.699859086110000E+00   1.728427673520000E+00   1.757476394040000E+00
   1.787013316960000E+00   1.817046647160000E+00   1.847584727430000E+00
   1.878636040770000E+00   1.910209212740000E+00   1.942313013860000E+00
   1.974956362080000E+00   2.008148325190000E+00   2.041898123400000E+00
   2.076215131870000E+00   2.111108883320000E+00   2.146589070690000E+00
   2.182665549810000E+00   2.219348342150000E+00   2.256647637630000E+00
   2.294573797380000E+00   2.333137356710000E+00   2.372349027950000E+00
   2.412219703500000E+00   2.452760458800000E+00   2.493982555420000E+00
   2.535897444210000E+00   2.578516768480000E+00   2.621852367190000E+00
   2.665916278290000E+00   2.710720742030000E+00   2.756278204400000E+00
   2.802601320530000E+00   2.849702958260000E+00   2.897596201670000E+00
   2.946294354760000E+00   2.995810945090000E+00   3.046159727600000E+00
   3.097354688380000E+00   3.149410048590000E+00   3.202340268380000E+00
   3.256160050930000E+00   3.310884346530000E+00   3.366528356720000E+00
   3.423107538530000E+00   3.480637608770000E+00   3.539134548370000E+00
   3.598614606860000E+00   3.659094306870000E+00   3.720590448700000E+00
   3.783120115000000E+00   3.846700675540000E+00   3.911349791980000E+00
   3.977085422830000E+00   4.043925828410000E+00   4.111889575940000E+00
   4.180995544650000E+00   4.251262931110000E+00   4.322711254480000E+00
   4.395360361980000E+00   4.469230434390000E+00   4.544341991630000E+00
   4.620715898520000E+00   4.698373370530000E+00   4.777335979660000E+00
   4.857625660500000E+00   4.939264716230000E+00   5.022275824910000E+00
   5.106682045710000E+00   5.192506825340000E+00   5.279774004570000E+00
   5.368507824850000E+00   5.458732935020000E+00   5.550474398210000E+00
   5.643757698740000E+00   5.738608749240000E+00   5.835053897830000E+00
   5.933119935450000E+00   6.032834103300000E+00   6.134224100400000E+00
   6.237318091280000E+00   6.342144713840000E+00   6.448733087250000E+00
   6.557112820080000E+00   6.667314018510000E+00   6.779367294680000E+00
   6.893303775240000E+00   7.009155109930000E+00   7.126953480430000E+00
   7.246731609260000E+00   7.368522768900000E+00   7.492360791010000E+00
   7.618280075820000E+00   7.746315601750000E+00   7.876502935020000E+00
   8.008878239620000E+00   8.143478287330000E+00   8.280340467920000E+00
   8.419502799520000E+00   8.561003939250000E+00   8.704883193890000E+00
   8.851180530810000E+00   8.999936589110000E+00   9.151192690869999E+00
   9.304990852660000E+00   9.461373797160000E+00   9.620384965100000E+00
   9.782068527260000E+00   9.946469396780000E+00   1.011363324160000E+01
   1.028360649730000E+01   1.045643637960000E+01   1.063217089810000E+01
   1.081085886890000E+01   1.099254992880000E+01   1.117729454870000E+01
   1.136514404770000E+01   1.155615060740000E+01   1.175036728650000E+01
   1.194784803530000E+01   1.214864771080000E+01   1.235282209200000E+01
   1.256042789520000E+01   1.277152279020000E+01   1.298616541580000E+01
   1.320441539620000E+01   1.342633335790000E+01   1.365198094620000E+01
   1.388142084240000E+01   1.411471678130000E+01   1.435193356880000E+01
   1.459313710000000E+01   1.483839437750000E+01   1.508777352980000E+01
   1.534134383050000E+01   1.559917571750000E+01   1.586134081230000E+01
   1.612791194040000E+01   1.639896315090000E+01   1.667456973760000E+01
   1.695480825970000E+01   1.723975656290000E+01   1.752949380150000E+01
   1.782410045980000E+01   1.812365837490000E+01   1.842825075940000E+01
   1.873796222410000E+01   1.905287880200000E+01   1.937308797190000E+01
   1.969867868300000E+01   2.002974137910000E+01   2.036636802420000E+01
   2.070865212800000E+01   2.105668877150000E+01   2.141057463390000E+01
   2.177040801890000E+01   2.213628888270000E+01   2.250831886120000E+01
   2.288660129840000E+01   2.327124127520000E+01   2.366234563860000E+01
   2.406002303110000E+01   2.446438392130000E+01   2.487554063410000E+01
   2.529360738260000E+01   2.571870029890000E+01   2.615093746720000E+01
   2.659043895620000E+01   2.703732685240000E+01   2.749172529420000E+01
   2.795376050640000E+01   2.842356083500000E+01   2.890125678310000E+01
   2.938698104720000E+01   2.988086855370000E+01   3.038305649690000E+01
   3.089368437650000E+01   3.141289403700000E+01   3.194082970650000E+01
   3.247763803740000E+01   3.302346814640000E+01   3.357847165660000E+01
   3.414280273910000E+01   3.471661815620000E+01   3.530007730480000E+01
   3.589334226070000E+01   3.649657782340000E+01   3.710995156220000E+01
   3.773363386280000E+01   3.836779797410000E+01   3.901262005710000E+01
   3.966827923300000E+01   4.033495763360000E+01   4.101284045170000E+01
   4.170211599240000E+01   4.240297572560000E+01   4.311561433900000E+01
   4.384022979240000E+01   4.457702337250000E+01   4.532619974890000E+01
   4.608796703100000E+01   4.686253682580000E+01   4.765012429640000E+01
   4.845094822230000E+01   4.926523105960000E+01   5.009319900330000E+01
   5.093508204990000E+01   5.179111406110000E+01   5.266153282900000E+01
   5.354658014240000E+01   5.444650185330000E+01   5.536154794580000E+01
   5.629197260530000E+01   5.723803428900000E+01   5.819999579790000E+01
   5.917812434970000E+01   6.017269165320000E+01   6.118397398330000E+01
   6.221225225840000E+01   6.325781211800000E+01   6.432094400190000E+01
   6.540194323160000E+01   6.650111009139999E+01   6.761874991270000E+01
   6.875517315800001E+01   6.991069550780000E+01   7.108563794810000E+01
   7.228032685910000E+01   7.349509410669999E+01   7.473027713410001E+01
   7.598621905540000E+01   7.726326875170000E+01   7.856178096700000E+01
   7.988211640770000E+01   8.122464184200000E+01   8.258973020230000E+01
   8.397776068860000E+01   8.538911887380000E+01   8.682419681099999E+01
   8.828339314210000E+01   8.976711320880000E+01   9.127576916520000E+01
   9.280978009210000E+01   9.436957211340000E+01   9.595557851469999E+01
   9.756823986360000E+01   9.920800413200000E+01   1.008753268200000E+02
   1.025706710850000E+02   1.042945078650000E+02   1.060473160160000E+02
   1.078295824390000E+02   1.096418022210000E+02   1.114844787670000E+02
   1.133581239440000E+02   1.152632582210000E+02   1.172004108140000E+02
   1.191701198340000E+02   1.211729324340000E+02   1.232094049640000E+02
   1.252801031250000E+02   1.273856021230000E+02   1.295264868320000E+02
   1.317033519580000E+02   1.339168021980000E+02   1.361674524140000E+02
   1.384559278010000E+02   1.407828640620000E+02   1.431489075820000E+02
   1.455547156110000E+02   1.480009564450000E+02   1.504883096100000E+02
   1.530174660550000E+02
    </PP_R>
    <PP_RAB>
   1.923801615090000E-07   1.956133660630000E-07   1.989009089220000E-07
   2.022437033110000E-07   2.056426778070000E-07   2.090987765920000E-07
   2.126129597150000E-07   2.161862033600000E-07   2.198195001190000E-07
   2.235138592630000E-07   2.272703070280000E-07   2.310898868950000E-07
   2.349736598830000E-07   2.389227048430000E-07   2.429381187570000E-07
   2.470210170450000E-07   2.511725338690000E-07   2.553938224580000E-07
   2.596860554160000E-07   2.640504250600000E-07   2.684881437430000E-07
   2.730004441910000E-07   2.775885798520000E-07   2.822538252360000E-07
   2.869974762760000E-07   2.918208506820000E-07   2.967252883120000E-07
   3.017121515420000E-07   3.067828256420000E-07   3.119387191670000E-07
   3.171812643410000E-07   3.225119174620000E-07   3.279321593000000E-07
   3.334434955140000E-07   3.390474570650000E-07   3.447456006450000E-07
   3.505395091080000E-07   3.564307919120000E-07   3.624210855610000E-07
   3.685120540640000E-07   3.747053893950000E-07   3.810028119670000E-07
   3.874060711030000E-07   3.939169455280000E-07   4.005372438590000E-07
   4.072688051110000E-07   4.141134992060000E-07   4.210732274910000E-07
   4.281499232690000E-07   4.353455523340000E-07   4.426621135190000E-07
   4.501016392480000E-07   4.576661961050000E-07   4.653578854030000E-07
   4.731788437730000E-07   4.811312437540000E-07   4.892172943950000E-07
   4.974392418760000E-07   5.057993701220000E-07   5.143000014450000E-07
   5.229434971870000E-07   5.317322583740000E-07   5.406687263850000E-07
   5.497553836300000E-07   5.589947542390000E-07   5.683894047630000E-07
   5.779419448880000E-07   5.876550281580000E-07   5.975313527140000E-07
   6.075736620439999E-07   6.177847457420000E-07   6.281674402870000E-07
   6.387246298260000E-07   6.494592469810000E-07   6.603742736580000E-07
   6.714727418800000E-07   6.827577346250000E-07   6.942323866870000E-07
   7.058998855420000E-07   7.177634722390000E-07   7.298264422920000E-07
   7.420921466060000E-07   7.545639923990000E-07   7.672454441530000E-07
   7.801400245740000E-07   7.932513155750000E-07   8.065829592640000E-07
   8.201386589610000E-07   8.339221802260000E-07   8.479373519040000E-07
   8.621880671870000E-07   8.766782846990000E-07   8.914120295940000E-07
   9.063933946730000E-07   9.216265415240000E-07   9.371157016740000E-07
   9.528651777660000E-07   9.688793447570001E-07   9.851626511299999E-07
   1.001719620130000E-06   1.018554851020000E-06   1.035673020360000E-06
   1.053078883310000E-06   1.070777274950000E-06   1.088773111600000E-06
   1.107071392230000E-06   1.125677199810000E-06   1.144595702740000E-06
   1.163832156280000E-06   1.183391904010000E-06   1.203280379330000E-06
   1.223503106930000E-06   1.244065704370000E-06   1.264973883620000E-06
   1.286233452640000E-06   1.307850317000000E-06   1.329830481520000E-06
   1.352180051950000E-06   1.374905236650000E-06   1.398012348300000E-06
   1.421507805710000E-06   1.445398135540000E-06   1.469689974150000E-06
   1.494390069420000E-06   1.519505282650000E-06   1.545042590460000E-06
   1.571009086690000E-06   1.597411984440000E-06   1.624258618020000E-06
   1.651556444980000E-06   1.679313048250000E-06   1.707536138160000E-06
   1.736233554650000E-06   1.765413269390000E-06   1.795083388070000E-06
   1.825252152560000E-06   1.855927943270000E-06   1.887119281460000E-06
   1.918834831580000E-06   1.951083403720000E-06   1.983873956010000E-06
   2.017215597160000E-06   2.051117588950000E-06   2.085589348810000E-06
   2.120640452450000E-06   2.156280636530000E-06   2.192519801310000E-06
   2.229368013470000E-06   2.266835508860000E-06   2.304932695350000E-06
   2.343670155750000E-06   2.383058650700000E-06   2.423109121710000E-06
   2.463832694180000E-06   2.505240680450000E-06   2.547344583020000E-06
   2.590156097690000E-06   2.633687116820000E-06   2.677949732640000E-06
   2.722956240610000E-06   2.768719142810000E-06   2.815251151480000E-06
   2.862565192450000E-06   2.910674408820000E-06   2.959592164590000E-06
   3.009332048310000E-06   3.059907876960000E-06   3.111333699690000E-06
   3.163623801790000E-06   3.216792708620000E-06   3.270855189660000E-06
   3.325826262630000E-06   3.381721197600000E-06   3.438555521330000E-06
   3.496345021470000E-06   3.555105751040000E-06   3.614854032850000E-06
   3.675606464030000E-06   3.737379920630000E-06   3.800191562360000E-06
   3.864058837290000E-06   3.928999486740000E-06   3.995031550200000E-06
   4.062173370330000E-06   4.130443598080000E-06   4.199861197830000E-06
   4.270445452700000E-06   4.342215969880000E-06   4.415192686070000E-06