<UPF version="2.0.1">
  <PP_INFO>
    Generated by new atomic code, or converted to UPF format
    Author: 
    Generation date: 
    Pseudopotential type: US
    Element: Ba
    Functional: SLA  PZ   NOGX NOGC
    Suggested minimum cutoff for wavefunctions:   0. Ry
    Suggested minimum cutoff for charge density:   0. Ry
    The Pseudo was generated with a Non-Relativistic Calculation
    L component and cutoff radius for Local Potential:  0   0.0000
    Valence configuration: 
    nl pn  l   occ       Rcut    Rcut US       E pseu
    5S  1  0  2.00      0.000      0.000     0.000000
    5P  2  1  6.00      0.000      0.000     0.000000
    5D  3  2  0.00      0.000      0.000     0.000000
    6S  1  0  2.00      0.000      0.000     0.000000
    6P  2  1  0.00      0.000      0.000     0.000000
    Generation configuration: not available.
  </PP_INFO>
    <!-- END OF HUMAN READABLE SECTION -->
  <PP_HEADER generated="Generated by new atomic code, or converted to UPF format" author="" date="" comment="" element="Ba" pseudo_type="US" relativistic="no" is_ultrasoft="true" is_paw="false" is_coulomb="false" has_so="false" has_wfc="false" has_gipaw="false" paw_as_gipaw="false" core_correction="true" functional="SLA  PZ   NOGX NOGC" z_valence="10.000000000000000" total_psenergy="-70.183911469600005" wfc_cutoff="0.0000000000000000" rho_cutoff="0.0000000000000000" l_max="3" l_max_rho="0" l_local="0" mesh_size="907" number_of_wfc="5" number_of_proj="7"/>
  <PP_MESH>
    <PP_R>
   0.000000000000000E+00   7.566215907130000E-07   1.526176571570000E-06
   2.308886020820000E-06   3.104974795750000E-06   3.914671597250000E-06
   4.738209035550000E-06   5.575823697020000E-06   6.427756212140000E-06
   7.294251324630000E-06   8.175557961780000E-06   9.071929305929999E-06
   9.983622867219999E-06   1.091090055760000E-05   1.185402876590000E-05
   1.281327843470000E-05   1.378892513790000E-05   1.478124915980000E-05
   1.579053557600000E-05   1.681707433490000E-05   1.786116034130000E-05
   1.892309354070000E-05   2.000317900620000E-05   2.110172702530000E-05
   2.221905318970000E-05   2.335547848550000E-05   2.451132938570000E-05
   2.568693794390000E-05   2.688264188970000E-05   2.809878472570000E-05
   2.933571582630000E-05   3.059379053770000E-05   3.187337028060000E-05
   3.317482265330000E-05   3.449852153810000E-05   3.584484720790000E-05
   3.721418643610000E-05   3.860693260730000E-05   4.002348583050000E-05
   4.146425305420000E-05   4.292964818280000E-05   4.442009219600000E-05
   4.593601326950000E-05   4.747784689820000E-05   4.904603602090000E-05
   5.064103114800000E-05   5.226329049090000E-05   5.391328009320000E-05
   5.559147396500000E-05   5.729835421900000E-05   5.903441120870000E-05
   6.080014366980000E-05   6.259605886300000E-05   6.442267272010000E-05
   6.628050999179999E-05   6.817010439890000E-05   7.009199878510000E-05
   7.204674527369999E-05   7.403490542550000E-05   7.605705040030000E-05
   7.811376112140000E-05   8.020562844190000E-05   8.233325331470000E-05
   8.449724696539999E-05   8.669823106750000E-05   8.893683792109999E-05
   9.121371063460000E-05   9.352950330960000E-05   9.588488122830000E-05
   9.828052104540000E-05   1.007171109820000E-04   1.031953510230000E-04
   1.057159531180000E-04   1.082796413890000E-04   1.108871523320000E-04
   1.135392350370000E-04   1.162366513930000E-04   1.189801763180000E-04
   1.217705979730000E-04   1.246087179910000E-04   1.274953517100000E-04
   1.304313284040000E-04   1.334174915220000E-04   1.364546989310000E-04
   1.395438231620000E-04   1.426857516610000E-04   1.458813870420000E-04
   1.491316473500000E-04   1.524374663220000E-04   1.557997936560000E-04
   1.592195952830000E-04   1.626978536460000E-04   1.662355679810000E-04
   1.698337546060000E-04   1.734934472090000E-04   1.772156971500000E-04
   1.810015737590000E-04   1.848521646450000E-04   1.887685760080000E-04
   1.927519329580000E-04   1.968033798350000E-04   2.009240805430000E-04
   2.051152188780000E-04   2.093779988740000E-04   2.137136451450000E-04
   2.181234032370000E-04   2.226085399900000E-04   2.271703438970000E-04
   2.318101254740000E-04   2.365292176430000E-04   2.413289761060000E-04
   2.462107797410000E-04   2.511760309960000E-04   2.562261562920000E-04
   2.613626064320000E-04   2.665868570180000E-04   2.719004088780000E-04
   2.773047884900000E-04   2.828015484300000E-04   2.883922678090000E-04
   2.940785527340000E-04   2.998620367640000E-04   3.057443813810000E-04
   3.117272764710000E-04   3.178124408020000E-04   3.240016225250000E-04
   3.302965996710000E-04   3.366991806670000E-04   3.432112048490000E-04
   3.498345429970000E-04   3.565710978660000E-04   3.634228047400000E-04
   3.703916319790000E-04   3.774795815950000E-04   3.846886898180000E-04
   3.920210276840000E-04   3.994787016330000E-04   4.070638541110000E-04
   4.147786641830000E-04   4.226253481680000E-04   4.306061602640000E-04
   4.387233932040000E-04   4.469793789130000E-04   4.553764891760000E-04
   4.639171363200000E-04   4.726037739070000E-04   4.814388974400000E-04
   4.904250450800000E-04   4.995647983730000E-04   5.088607829920000E-04
   5.183156694950000E-04   5.279321740870000E-04   5.377130594050000E-04
   5.476611353060000E-04   5.577792596820000E-04   5.680703392720000E-04
   5.785373305060000E-04   5.891832403480000E-04   6.000111271600000E-04
   6.110241015860000E-04   6.222253274400000E-04   6.336180226170000E-04
   6.452054600180000E-04   6.569909684900000E-04   6.689779337820000E-04
   6.811697995160000E-04   6.935700681800000E-04   7.061823021300000E-04
   7.190101246180000E-04   7.320572208290000E-04   7.453273389410000E-04
   7.588242912020000E-04   7.725519550250000E-04   7.865142741030000E-04
   8.007152595390000E-04   8.151589910030000E-04   8.298496178980000E-04
   8.447913605570000E-04   8.599885114540000E-04   8.754454364370000E-04
   8.911665759800000E-04   9.071564464630000E-04   9.234196414660000E-04
   9.399608330900000E-04   9.567847733010000E-04   9.738962952890000E-04
   9.913003148650000E-04   1.009001831870000E-03   1.027005931600000E-03
   1.045317786280000E-03   1.063942656570000E-03   1.082885893020000E-03
   1.102152937670000E-03   1.121749325550000E-03   1.141680686330000E-03
   1.161952745910000E-03   1.182571328050000E-03   1.203542356080000E-03
   1.224871854570000E-03   1.246565951070000E-03   1.268630877870000E-03
   1.291072973800000E-03   1.313898686040000E-03   1.337114571970000E-03
   1.360727301070000E-03   1.384743656830000E-03   1.409170538660000E-03
   1.434014963950000E-03   1.459284070020000E-03   1.484985116190000E-03
   1.511125485880000E-03   1.537712688710000E-03   1.564754362660000E-03
   1.592258276280000E-03   1.620232330930000E-03   1.648684563000000E-03
   1.677623146270000E-03   1.707056394230000E-03   1.736992762490000E-03
   1.767440851190000E-03   1.798409407460000E-03   1.829907327990000E-03
   1.861943661510000E-03   1.894527611440000E-03   1.927668538520000E-03
   1.961375963500000E-03   1.995659569860000E-03   2.030529206630000E-03
   2.065994891170000E-03   2.102066812100000E-03   2.138755332170000E-03
   2.176070991290000E-03   2.214024509520000E-03   2.252626790180000E-03
   2.291888922950000E-03   2.331822187090000E-03   2.372438054640000E-03
   2.413748193770000E-03   2.455764472070000E-03   2.498498960020000E-03
   2.541963934390000E-03   2.586171881840000E-03   2.631135502450000E-03
   2.676867713410000E-03   2.723381652690000E-03   2.770690682840000E-03
   2.818808394840000E-03   2.867748611980000E-03   2.917525393820000E-03
   2.968153040280000E-03   3.019646095700000E-03   3.072019353040000E-03
   3.125287858120000E-03   3.179466913950000E-03   3.234572085130000E-03
   3.290619202300000E-03   3.347624366720000E-03   3.405603954870000E-03
   3.464574623160000E-03   3.524553312730000E-03   3.585557254290000E-03
   3.647603973090000E-03   3.710711293950000E-03   3.774897346390000E-03
   3.840180569820000E-03   3.906579718850000E-03   3.974113868660000E-03
   4.042802420500000E-03   4.112665107280000E-03   4.183721999190000E-03
   4.255993509500000E-03   4.329500400410000E-03   4.404263789040000E-03
   4.480305153450000E-03   4.557646338870000E-03   4.636309563910000E-03
   4.716317427000000E-03   4.797692912850000E-03   4.880459399060000E-03
   4.964640662840000E-03   5.050260887840000E-03   5.137344671100000E-03
   5.225917030090000E-03   5.316003409950000E-03   5.407629690750000E-03
   5.500822194940000E-03   5.595607694930000E-03   5.692013420760000E-03
   5.790067067930000E-03   5.889796805350000E-03   5.991231283450000E-03
   6.094399642390000E-03   6.199331520440000E-03   6.306057062500000E-03
   6.414606928750000E-03   6.525012303480000E-03   6.637304904000000E-03
   6.751516989810000E-03   6.867681371840000E-03   6.985831421850000E-03
   7.106001082080000E-03   7.228224874930000E-03   7.352537912950000E-03
   7.478975908860000E-03   7.607575185850000E-03   7.738372688010000E-03
   7.871405990929999E-03   8.006713312490000E-03   8.144333523880000E-03
   8.284306160720000E-03   8.426671434440000E-03   8.571470243820000E-03
   8.718744186769999E-03   8.868535572240000E-03   9.020887432390001E-03
   9.175843534959999E-03   9.333448395850000E-03   9.493747291880000E-03
   9.656786273829999E-03   9.822612179630000E-03   9.991272647860001E-03
   1.016281613140000E-02   1.033729191140000E-02   1.051475011140000E-02
   1.069524171160000E-02   1.087881856380000E-02   1.106553340610000E-02
   1.125543987810000E-02   1.144859253610000E-02   1.164504686930000E-02
   1.184485931510000E-02   1.204808727590000E-02   1.225478913500000E-02
   1.246502427390000E-02   1.267885308910000E-02   1.289633700950000E-02
   1.311753851390000E-02   1.334252114940000E-02   1.357134954900000E-02
   1.380408945080000E-02   1.404080771640000E-02   1.428157235030000E-02
   1.452645251970000E-02   1.477551857380000E-02   1.502884206450000E-02
   1.528649576670000E-02   1.554855369940000E-02   1.581509114670000E-02
   1.608618467970000E-02   1.636191217830000E-02   1.664235285370000E-02
   1.692758727100000E-02   1.721769737260000E-02   1.751276650150000E-02
   1.781287942540000E-02   1.811812236090000E-02   1.842858299830000E-02
   1.874435052710000E-02   1.906551566110000E-02   1.939217066480000E-02
   1.972440937990000E-02   2.006232725220000E-02   2.040602135890000E-02
   2.075559043670000E-02   2.111113491010000E-02   2.147275692000000E-02
   2.184056035340000E-02   2.221465087330000E-02   2.259513594850000E-02
   2.298212488500000E-02   2.337572885740000E-02   2.377606094030000E-02
   2.418323614150000E-02   2.459737143440000E-02   2.501858579230000E-02
   2.544700022170000E-02   2.588273779790000E-02   2.632592369990000E-02
   2.677668524630000E-02   2.723515193220000E-02   2.770145546640000E-02
   2.817572980860000E-02   2.865811120890000E-02   2.914873824590000E-02
   2.964775186750000E-02   3.015529543040000E-02   3.067151474230000E-02
   3.119655810280000E-02   3.173057634680000E-02   3.227372288740000E-02
   3.282615376010000E-02   3.338802766760000E-02   3.395950602540000E-02
   3.454075300820000E-02   3.513193559690000E-02   3.573322362690000E-02
   3.634478983660000E-02   3.696680991720000E-02   3.759946256290000E-02
   3.824292952270000E-02   3.889739565210000E-02   3.956304896670000E-02
   4.024008069560000E-02   4.092868533710000E-02   4.162906071390000E-02
   4.234140803030000E-02   4.306593192990000E-02   4.380284055450000E-02
   4.455234560350000E-02   4.531466239530000E-02   4.609000992880000E-02
   4.687861094630000E-02   4.768069199760000E-02   4.849648350500000E-02
   4.932621982980000E-02   5.017013933900000E-02   5.102848447450000E-02
   5.190150182210000E-02   5.278944218290000E-02   5.369256064500000E-02
   5.461111665670000E-02   5.554537410160000E-02   5.649560137350000E-02
   5.746207145460000E-02   5.844506199280000E-02   5.944485538250000E-02
   6.046173884480000E-02   6.149600451070000E-02   6.254794950480000E-02
   6.361787603040001E-02   6.470609145670000E-02   6.581290840710000E-02
   6.693864484850000E-02   6.808362418330000E-02   6.924817534190000E-02
   7.043263287720000E-02   7.163733706110000E-02   7.286263398170000E-02
   7.410887564320000E-02   7.537642006650000E-02   7.666563139280000E-02
   7.797687998739999E-02   7.931054254680001E-02   8.066700220640000E-02
   8.204664865069999E-02   8.344987822560000E-02   8.487709405170001E-02
   8.632870614040000E-02   8.780513151200001E-02   8.930679431480000E-02
   9.083412594739999E-02   9.238756518270000E-02   9.396755829380000E-02
   9.557455918200000E-02   9.720902950760001E-02   9.887143882240000E-02
   1.005622647040000E-01   1.022819928950000E-01   1.040311174390000E-01
   1.058101408260000E-01   1.076195741350000E-01   1.094599371810000E-01
   1.113317586650000E-01   1.132355763250000E-01   1.151719370910000E-01
   1.171413972410000E-01   1.191445225640000E-01   1.211818885200000E-01
   1.232540804020000E-01   1.253616935130000E-01   1.275053333290000E-01
   1.296856156760000E-01   1.319031669060000E-01   1.341586240800000E-01
   1.364526351470000E-01   1.387858591310000E-01   1.411589663230000E-01
   1.435726384710000E-01   1.460275689750000E-01   1.485244630900000E-01
   1.510640381260000E-01   1.536470236520000E-01   1.562741617110000E-01
   1.589462070290000E-01   1.616639272320000E-01   1.644281030690000E-01
   1.672395286350000E-01   1.700990115970000E-01   1.730073734290000E-01
   1.759654496480000E-01   1.789740900510000E-01   1.820341589640000E-01
   1.851465354830000E-01   1.883121137360000E-01   1.915318031310000E-01
   1.948065286230000E-01   1.981372309770000E-01   2.015248670390000E-01
   2.049704100120000E-01   2.084748497330000E-01   2.120391929600000E-01
   2.156644636610000E-01   2.193517033040000E-01   2.231019711640000E-01
   2.269163446180000E-01   2.307959194630000E-01   2.347418102260000E-01
   2.387551504850000E-01   2.428370931940000E-01   2.469888110170000E-01
   2.512114966620000E-01   2.555063632250000E-01   2.598746445380000E-01
   2.643175955230000E-01   2.688364925550000E-01   2.734326338250000E-01
   2.781073397150000E-01   2.828619531790000E-01   2.876978401240000E-01
   2.926163898080000E-01   2.976190152340000E-01   3.027071535600000E-01
   3.078822665090000E-01   3.131458407920000E-01   3.184993885310000E-01
   3.239444476980000E-01   3.294825825520000E-01   3.351153840920000E-01
   3.408444705130000E-01   3.466714876700000E-01   3.525981095540000E-01
   3.586260387680000E-01   3.647570070190000E-01   3.709927756160000E-01
   3.773351359740000E-01   3.837859101310000E-01   3.903469512690000E-01
   3.970201442500000E-01   4.038074061500000E-01   4.107106868210000E-01
   4.177319694400000E-01   4.248732710870000E-01   4.321366433190000E-01
   4.395241727620000E-01   4.470379817120000E-01   4.546802287380000E-01
   4.624531093120000E-01   4.703588564320000E-01   4.783997412650000E-01
   4.865780738020000E-01   4.948962035200000E-01   5.033565200570000E-01
   5.119614538980000E-01   5.207134770740000E-01   5.296151038710000E-01
   5.386688915550000E-01   5.478774411040001E-01   5.572433979560000E-01
   5.667694527700000E-01   5.764583421950000E-01   5.863128496640000E-01
   5.963358061840000E-01   6.065300911580001E-01   6.168986332060000E-01
   6.274444110100000E-01   6.381704541680000E-01   6.490798440650000E-01
   6.601757147560000E-01   6.714612538710000E-01   6.829397035270000E-01
   6.946143612610000E-01   7.064885809750000E-01   7.185657739030000E-01
   7.308494095890000E-01   7.433430168840000E-01   7.560501849600000E-01
   7.689745643400000E-01   7.821198679469999E-01   7.954898721740000E-01
   8.090884179640000E-01   8.229194119160000E-01   8.369868274070000E-01
   8.512947057330000E-01   8.658471572710000E-01   8.806483626580000E-01
   8.957025739940000E-01   9.110141160640000E-01   9.265873875760000E-01
   9.424268624300000E-01   9.585370910010000E-01   9.749227014460000E-01
   9.915884010330001E-01   1.008538977500000E+00   1.025779300410000E+00
   1.043314322580000E+00   1.061149081480000E+00   1.079288700700000E+00
   1.097738391390000E+00   1.116503453790000E+00   1.135589278750000E+00
   1.155001349240000E+00   1.174745242000000E+00   1.194826629040000E+00
   1.215251279370000E+00   1.236025060590000E+00   1.257153940610000E+00
   1.278643989340000E+00   1.300501380470000E+00   1.322732393190000E+00
   1.345343414050000E+00   1.368340938760000E+00   1.391731574050000E+00
   1.415522039610000E+00   1.439719169980000E+00   1.464329916520000E+00
   1.489361349430000E+00   1.514820659740000E+00   1.540715161440000E+00
   1.567052293500000E+00   1.593839622080000E+00   1.621084842660000E+00
   1.648795782260000E+00   1.676980401700000E+00   1.705646797870000E+00
   1.734803206080000E+00   1.764458002390000E+00   1.794619706060000E+00
   1.825296981960000E+00   1.856498643080000E+00   1.888233653050000E+00
   1.920511128730000E+00   1.953340342800000E+00   1.986730726480000E+00
   2.020691872160000E+00   2.055233536230000E+00   2.090365641840000E+00
   2.126098281770000E+00   2.162441721310000E+00   2.199406401220000E+00
   2.237002940750000E+00   2.275242140650000E+00   2.314134986310000E+00
   2.353692650880000E+00   2.393926498530000E+00   2.434848087640000E+00
   2.476469174220000E+00   2.518801715180000E+00   2.561857871850000E+00
   2.605650013420000E+00   2.650190720540000E+00   2.695492788890000E+00
   2.741569232870000E+00   2.788433289360000E+00   2.836098421490000E+00
   2.884578322530000E+00   2.933886919810000E+00   2.984038378760000E+00
   3.035047106900000E+00   3.086927758060000E+00   3.139695236550000E+00
   3.193364701440000E+00   3.247951570930000E+00   3.303471526770000E+00
   3.359940518770000E+00   3.417374769380000E+00   3.475790778350000E+00
   3.535205327470000E+00   3.595635485380000E+00   3.657098612510000E+00
   3.719612366010000E+00   3.783194704890000E+00   3.847863895110000E+00
   3.913638514890000E+00   3.980537460000000E+00   4.048579949210000E+00
   4.117785529810000E+00   4.188174083220000E+00   4.259765830730000E+00
   4.332581339240000E+00   4.406641527240000E+00   4.481967670800000E+00
   4.558581409660000E+00   4.636504753460000E+00   4.715760088080000E+00
   4.796370182030000E+00   4.878358193030000E+00   4.961747674660000E+00
   5.046562583100000E+00   5.132827284030000E+00   5.220566559620000E+00
   5.309805615690000E+00   5.400570088870000E+00   5.492886054060000E+00
   5.586780031830000E+00   5.682278996100000E+00   5.779410381900000E+00
   5.878202093180000E+00   5.978682510880000E+00   6.080880501100000E+00
   6.184825423330000E+00   6.290547138930000E+00   6.398076019720000E+00
   6.507442956660000E+00   6.618679368750000E+00   6.731817212060000E+00
   6.846888988910000E+00   6.963927757180000E+00   7.082967139860000E+00
   7.204041334650000E+00   7.327185123830000E+00   7.452433884230000E+00
   7.579823597380000E+00   7.709390859900000E+00   7.841172893940000E+00
   7.975207557930000E+00   8.111533357450000E+00   8.250189456250000E+00
   8.391215687550000E+00   8.534652565460000E+00   8.680541296610000E+00
   8.828923792010000E+00   8.979842679090000E+00   9.133341313920001E+00
   9.289463793690000E+00   9.448254969370000E+00   9.609760458580000E+00
   9.774026658720000E+00   9.941100760310000E+00   1.011103076050000E+01
   1.028386547690000E+01   1.045965456150000E+01   1.063844851520000E+01
   1.082029870210000E+01   1.100525736400000E+01   1.119337763620000E+01
   1.138471356190000E+01   1.157932010820000E+01   1.177725318180000E+01
   1.197856964510000E+01   1.218332733230000E+01   1.239158506650000E+01
   1.260340267600000E+01   1.281884101180000E+01   1.303796196540000E+01
   1.326082848590000E+01   1.348750459850000E+01   1.371805542290000E+01
   1.395254719180000E+01   1.419104727030000E+01   1.443362417480000E+01
   1.468034759300000E+01   1.493128840360000E+01   1.518651869720000E+01
   1.544611179640000E+01   1.571014227740000E+01   1.597868599090000E+01
   1.625182008450000E+01   1.652962302420000E+01   1.681217461750000E+01
   1.709955603590000E+01   1.739184983860000E+01   1.768913999590000E+01
   1.799151191350000E+01   1.829905245710000E+01   1.861184997710000E+01
   1.892999433410000E+01   1.925357692490000E+01   1.958269070850000E+01
   1.991743023290000E+01   2.025789166230000E+01   2.060417280470000E+01
   2.095637314000000E+01   2.131459384840000E+01   2.167893784000000E+01
   2.204950978350000E+01   2.242641613730000E+01   2.280976517920000E+01
   2.319966703790000E+01   2.359623372480000E+01   2.399957916570000E+01
   2.440981923410000E+01   2.482707178380000E+01   2.525145668360000E+01
   2.568309585090000E+01   2.612211328740000E+01   2.656863511430000E+01
   2.702278960870000E+01   2.748470724030000E+01   2.795452070920000E+01
   2.843236498360000E+01   2.891837733900000E+01   2.941269739740000E+01
   2.991546716720000E+01   3.042683108470000E+01   3.094693605460000E+01
   3.147593149310000E+01   3.201396937030000E+01   3.256120425420000E+01
   3.311779335470000E+01   3.368389656910000E+01   3.425967652790000E+01
   3.484529864150000E+01   3.544093114780000E+01   3.604674516050000E+01
   3.666291471830000E+01   3.728961683480000E+01   3.792703154930000E+01
   3.857534197880000E+01   3.923473437030000E+01   3.990539815440000E+01
   4.058752600000000E+01   4.128131386910000E+01   4.198696107350000E+01
   4.270467033210000E+01   4.343464782890000E+01   4.417710327210000E+01
   4.493224995500000E+01   4.570030481660000E+01   4.648148850410000E+01
   4.727602543650000E+01   4.808414386890000E+01   4.890607595810000E+01
   4.974205782920000E+01   5.059232964370000E+01   5.145713566830000E+01
   5.233672434490000E+01   5.323134836230000E+01   5.414126472880000E+01
   5.506673484570000E+01   5.600802458260000E+01   5.696540435390000E+01
   5.793914919630000E+01   5.892953884770000E+01   5.993685782810000E+01
   6.096139552060000E+01   6.200344625510000E+01   6.306330939260000E+01
   6.414128941129999E+01   6.523769599390000E+01   6.635284411690000E+01
   6.748705414080000E+01   6.864065190210000E+01   6.981396880720000E+01
   7.100734192730000E+01   7.222111409530000E+01   7.345563400460000E+01
   7.471125630890000E+01   7.598834172410000E+01   7.728725713210000E+01
   7.860837568620001E+01   7.995207691829999E+01   8.131874684760000E+01
   8.270877809210000E+01   8.412256998070001E+01   8.556052866850000E+01
   8.702306725330000E+01   8.851060589410000E+01   9.002357193180001E+01
   9.156240001250001E+01   9.312753221160000E+01   9.471941816130000E+01
   9.633851517970000E+01   9.798528840199999E+01   9.966021091430000E+01
   1.013637638890000E+02   1.030964367250000E+02   1.048587271850000E+02
   1.066511415400000E+02   1.084741947180000E+02   1.103284104450000E+02
   1.122143214020000E+02   1.141324693750000E+02   1.160834054110000E+02
   1.180676899760000E+02   1.200858931160000E+02   1.221385946220000E+02
   1.242263841950000E+02   1.263498616170000E+02   1.285096369230000E+02
   1.307063305730000E+02   1.329405736350000E+02   1.352130079640000E+02
   1.375242863870000E+02   1.398750728890000E+02   1.422660428050000E+02
   1.446978830150000E+02   1.471712921390000E+02   1.496869807410000E+02
   1.522456715280000E+02   1.548480995630000E+02   1.574950124740000E+02
   1.601871706660000E+02   1.629253475460000E+02   1.657103297380000E+02
   1.685429173140000E+02   1.714239240210000E+02   1.743541775180000E+02
   1.773345196080000E+02   1.803658064870000E+02   1.834489089840000E+02
   1.865847128160000E+02   1.897741188380000E+02   1.930180433050000E+02
   1.963174181330000E+02   1.996731911700000E+02   2.030863264630000E+02
   2.065578045400000E+02
    </PP_R>
    <PP_RAB>
   7.502276563760000E-07   7.630517511340000E-07   7.760950558940000E-07
   7.893613177460000E-07   8.028543478290000E-07   8.165780224310000E-07
   8.305362840970000E-07   8.447331427660000E-07   8.591726769210000E-07
   8.738590347599999E-07   8.887964353890000E-07   9.039891700360000E-07
   9.194416032780000E-07   9.351581743010000E-07   9.511433981710000E-07
   9.674018671339999E-07   9.839382519339999E-07   1.000757303150000E-06
   1.017863852580000E-06   1.035262814600000E-06   1.052959187580000E-06
   1.070958055370000E-06   1.089264588680000E-06   1.107884046640000E-06
   1.126821778230000E-06   1.146083223930000E-06   1.165673917150000E-06
   1.185599485930000E-06   1.205865654510000E-06   1.226478244950000E-06
   1.247443178860000E-06   1.268766479050000E-06   1.290454271300000E-06
   1.312512786090000E-06   1.334948360410000E-06   1.357767439560000E-06
   1.380976579020000E-06   1.404582446330000E-06   1.428591823000000E-06
   1.453011606450000E-06   1.477848812020000E-06   1.503110574950000E-06
   1.528804152470000E-06   1.554936925840000E-06   1.581516402490000E-06
   1.608550218210000E-06   1.636046139270000E-06   1.664012064740000E-06
   1.692456028660000E-06   1.721386202460000E-06   1.750810897200000E-06
   1.780738566030000E-06   1.811177806600000E-06   1.842137363500000E-06
   1.873626130810000E-06   1.905653154660000E-06   1.938227635790000E-06
   1.971358932200000E-06   2.005056561890000E-06   2.039330205530000E-06
   2.074189709280000E-06   2.109645087590000E-06   2.145706526120000E-06
   2.182384384600000E-06   2.219689199890000E-06   2.257631688940000E-06
   2.296222751880000E-06   2.335473475180000E-06   2.375395134820000E-06
   2.415999199520000E-06   2.457297334030000E-06   2.499301402520000E-06
   2.542023471940000E-06   2.585475815510000E-06   2.629670916250000E-06
   2.674621470560000E-06   2.720340391860000E-06   2.766840814310000E-06
   2.814136096590000E-06   2.862239825720000E-06   2.911165820960000E-06
   2.960928137810000E-06   3.011541072010000E-06   3.063019163690000E-06
   3.115377201500000E-06   3.168630226900000E-06   3.222793538440000E-06
   3.277882696210000E-06   3.333913526240000E-06   3.390902125120000E-06
   3.448864864560000E-06   3.507818396140000E-06   3.567779656060000E-06
   3.628765870040000E-06   3.690794558230000E-06   3.753883540280000E-06
   3.818050940430000E-06   3.883315192730000E-06   3.949695046350000E-06
   4.017209570920000E-06   4.085878162060000E-06   4.155720546930000E-06
   4.226756789900000E-06   4.299007298310000E-06   4.372492828320000E-06
   4.447234490910000E-06   4.523253757910000E-06   4.600572468190000E-06
   4.679212833910000E-06   4.759197446930000E-06   4.840549285280000E-06
   4.923291719780000E-06   5.007448520720000E-06   5.093043864720000E-06
   5.180102341660000E-06   5.268648961770000E-06   5.358709162780000E-06
   5.450308817230000E-06   5.543474239930000E-06   5.638232195520000E-06
   5.734609906100000E-06   5.832635059150000E-06   5.932335815380000E-06
   6.033740816900000E-06   6.136879195390000E-06   6.241780580520000E-06
   6.348475108440000E-06   6.456993430400000E-06   6.567366721620000E-06
   6.679626690220000E-06   6.793805586310000E-06   6.909936211280000E-06
   7.028051927210000E-06   7.148186666470000E-06   7.270374941420000E-06
   7.394651854410000E-06   7.521053107790000E-06   7.649615014180000E-06
   7.780374506940000E-06   7.913369150740001E-06   8.048637152370000E-06
   8.186217371700000E-06   8.326149332870000E-06   8.468473235630000E-06
   8.613229966880000E-06   8.760461112420000E-06   8.910208968920001E-06
   9.062516556040000E-06   9.217427628790000E-06   9.374986690140000E-06
   9.535239003749999E-06   9.698230607010000E-06   9.864008324250000E-06
   1.003261978020000E-05   1.020411341370000E-05   1.037853849150000E-05
   1.055594512260000E-05   1.073638427240000E-05   1.091990777770000E-05
   1.110656836120000E-05   1.129641964690000E-05   1.148951617530000E-05
   1.168591341940000E-05   1.188566780030000E-05   1.208883670350000E-05
   1.229547849560000E-05   1.250565254080000E-05   1.271941921790000E-05
   1.293683993800000E-05   1.315797716200000E-05   1.338289441810000E-05
   1.361165632080000E-05   1.384432858900000E-05   1.408097806490000E-05
   1.432167273330000E-05   1.456648174120000E-05   1.481547541740000E-05
   1.506872529290000E-05   1.532630412170000E-05   1.558828590110000E-05
   1.585474589330000E-05   1.612576064730000E-05   1.640140802020000E-05
   1.668176720030000E-05   1.696691872930000E-05   1.725694452570000E-05
   1.755192790830000E-05   1.785195362020000E-05   1.815710785290000E-05
   1.846747827140000E-05   1.878315403890000E-05   1.910422584320000E-05
   1.943078592190000E-05   1.976292808940000E-05   2.010074776360000E-05
   2.044434199380000E-05   2.079380948780000E-05   2.114925064080000E-05
   2.151076756440000E-05   2.187846411510000E-05   2.225244592530000E-05
   2.263282043260000E-05   2.301969691120000E-05   2.341318650330000E-05
   2.381340225080000E-05   2.422045912800000E-05   2.463447407440000E-05
   2.505556602850000E-05   2.548385596190000E-05   2.591946691390000E-05
   2.636252402720000E-05   2.681315458360000E-05   2.727148804040000E-05
   2.773765606800000E-05   2.821179258740000E-05   2.869403380890000E-05
   2.918451827110000E-05   2.968338688070000E-05   3.019078295280000E-05
   3.070685225280000E-05   3.123174303710000E-05   3.176560609690000E-05
   3.230859480060000E-05   3.286086513840000E-05   3.342257576690000E-05
   3.399388805460000E-05   3.457496612860000E-05   3.516597692130000E-05
   3.576709021860000E-05   3.637847870890000E-05   3.700031803210000E-05
   3.763278683070000E-05   3.827606680070000E-05   3.893034274410000E-05
   3.959580262160000E-05   4.027263760700000E-05   4.096104214180000E-05
   4.166121399150000E-05   4.237335430170000E-05   4.309766765660000E-05
   4.383436213750000E-05   4.458364938250000E-05   4.534574464710000E-05
   4.612086686670000E-05   4.690923871890000E-05   4.771108668760000E-05
   4.852664112830000E-05   4.935613633400000E-05   5.019981060250000E-05
   5.105790630520000E-05   5.193066995640000E-05   5.281835228410000E-05
   5.372120830240000E-05   5.463949738430000E-05   5.557348333650000E-05
   5.652343447500000E-05   5.748962370250000E-05   5.847232858640000E-05
   5.947183143880000E-05   6.048841939750000E-05   6.152238450870000E-05