<UPF version="2.0.1">
  <PP_INFO>
    Generated by new atomic code, or converted to UPF format
    Author: 
    Generation date: 
    Pseudopotential type: US
    Element: Be
    Functional:  SLA  PZ   NOGX NOGC
    Suggested minimum cutoff for wavefunctions:   0. Ry
    Suggested minimum cutoff for charge density:   0. Ry
    The Pseudo was generated with a Non-Relativistic Calculation
    L component and cutoff radius for Local Potential:  0   0.0000
    Valence configuration: 
    nl pn  l   occ       Rcut    Rcut US       E pseu
    1S  1  0  2.00      0.000      0.000     0.000000
    2S  1  0  2.00      0.000      0.000     0.000000
    2P  2  1  0.00      0.000      0.000     0.000000
    Generation configuration: not available.
  </PP_INFO>
    <!-- END OF HUMAN READABLE SECTION -->
  <PP_HEADER generated="Generated by new atomic code, or converted to UPF format" author="" date="" comment="" element="Be" pseudo_type="US" relativistic="no" is_ultrasoft="true" is_paw="false" is_coulomb="false" has_so="false" has_wfc="false" has_gipaw="false" paw_as_gipaw="false" core_correction="false" functional=" SLA  PZ   NOGX NOGC" z_valence="4.0000000000000000" total_psenergy="-27.683171568900001" wfc_cutoff="0.0000000000000000" rho_cutoff="0.0000000000000000" l_max="2" l_max_rho="0" l_local="0" mesh_size="769" number_of_wfc="3" number_of_proj="6"/>
  <PP_MESH>
    <PP_R>
   0.000000000000000E+00   3.831347396600000E-06   7.727085683360000E-06
   1.168829703490000E-05   1.571608181310000E-05   1.981155887300000E-05
   2.397586587350000E-05   2.821015959330000E-05   3.251561625220000E-05
   3.689343183830000E-05   4.134482243940000E-05   4.587102458170000E-05
   5.047329557260000E-05   5.515291385020000E-05   5.991117933880000E-05
   6.474941380920000E-05   6.966896124660000E-05   7.467118822350000E-05
   7.975748427970000E-05   8.492926230790000E-05   9.018795894629999E-05
   9.553503497780001E-05   1.009719757360000E-04   1.065002915160000E-04
   1.121215179980000E-04   1.178372166700000E-04   1.236489752620000E-04
   1.295584081880000E-04   1.355671569970000E-04   1.416768908240000E-04
   1.478893068560000E-04   1.542061308040000E-04   1.606291173820000E-04
   1.671600507950000E-04   1.738007452330000E-04   1.805530453750000E-04
   1.874188269050000E-04   1.943999970270000E-04   2.014984950010000E-04
   2.087162926770000E-04   2.160553950450000E-04   2.235178407920000E-04
   2.311057028690000E-04   2.388210890620000E-04   2.466661425840000E-04
   2.546430426680000E-04   2.627540051710000E-04   2.710012831880000E-04
   2.793871676850000E-04   2.879139881280000E-04   2.965841131320000E-04
   3.053999511210000E-04   3.143639509960000E-04   3.234786028140000E-04
   3.327464384830000E-04   3.421700324590000E-04   3.517520024700000E-04
   3.614950102340000E-04   3.714017622060000E-04   3.814750103240000E-04
   3.917175527780000E-04   4.021322347850000E-04   4.127219493780000E-04
   4.234896382130000E-04   4.344382923850000E-04   4.455709532560000E-04
   4.568907133030000E-04   4.684007169780000E-04   4.801041615780000E-04
   4.920042981330000E-04   5.041044323160000E-04   5.164079253510000E-04
   5.289181949550000E-04   5.416387162840000E-04   5.545730228960000E-04
   5.677247077390000E-04   5.810974241420000E-04   5.946948868350000E-04
   6.085208729790001E-04   6.225792232140000E-04   6.368738427280001E-04
   6.514087023390000E-04   6.661878396040000E-04   6.812153599320000E-04
   6.964954377320001E-04   7.120323175680000E-04   7.278303153390000E-04
   7.438938194800001E-04   7.602272921790000E-04   7.768352706170000E-04
   7.937223682270000E-04   8.108932759790000E-04   8.283527636800000E-04
   8.461056812990000E-04   8.641569603180000E-04   8.825116150950000E-04
   9.011747442650000E-04   9.201515321490000E-04   9.394472502000000E-04
   9.590672584640000E-04   9.790170070689999E-04   9.993020377400000E-04
   1.019927985340000E-03   1.040900579430000E-03   1.062225645860000E-03
   1.083909108410000E-03   1.105956990390000E-03   1.128375416360000E-03
   1.151170613800000E-03   1.174348914860000E-03   1.197916758110000E-03
   1.221880690320000E-03   1.246247368290000E-03   1.271023560700000E-03
   1.296216149990000E-03   1.321832134260000E-03   1.347878629220000E-03
   1.374362870180000E-03   1.401292214040000E-03   1.428674141350000E-03
   1.456516258380000E-03   1.484826299230000E-03   1.513612127980000E-03
   1.542881740870000E-03   1.572643268560000E-03   1.602904978300000E-03
   1.633675276340000E-03   1.664962710180000E-03   1.696775970960000E-03
   1.729123895920000E-03   1.762015470790000E-03   1.795459832330000E-03
   1.829466270870000E-03   1.864044232840000E-03   1.899203323470000E-03
   1.934953309390000E-03   1.971304121390000E-03   2.008265857140000E-03
   2.045848784040000E-03   2.084063342020000E-03   2.122920146490000E-03
   2.162429991250000E-03   2.202603851510000E-03   2.243452886950000E-03
   2.284988444770000E-03   2.327222062900000E-03   2.370165473170000E-03
   2.413830604570000E-03   2.458229586610000E-03   2.503374752600000E-03
   2.549278643170000E-03   2.595954009690000E-03   2.643413817840000E-03
   2.691671251210000E-03   2.740739714950000E-03   2.790632839490000E-03
   2.841364484380000E-03   2.892948742050000E-03   2.945399941790000E-03
   2.998732653730000E-03   3.052961692850000E-03   3.108102123110000E-03
   3.164169261660000E-03   3.221178683070000E-03   3.279146223650000E-03
   3.338087985860000E-03   3.398020342810000E-03   3.458959942740000E-03
   3.520923713730000E-03   3.583928868330000E-03   3.647992908360000E-03
   3.713133629820000E-03   3.779369127770000E-03   3.846717801380000E-03
   3.915198359050000E-03   3.984829823600000E-03   4.055631537540000E-03
   4.127623168480000E-03   4.200824714560000E-03   4.275256510010000E-03
   4.350939230790000E-03   4.427893900390000E-03   4.506141895600000E-03
   4.585704952460000E-03   4.666605172340000E-03   4.748865028040000E-03
   4.832507370060000E-03   4.917555432910000E-03   5.004032841610000E-03
   5.091963618210000E-03   5.181372188480000E-03   5.272283388740000E-03
   5.364722472650000E-03   5.458715118360000E-03   5.554287435520000E-03
   5.651465972610000E-03   5.750277724310000E-03   5.850750138960000E-03
   5.952911126200000E-03   6.056789064740000E-03   6.162412810240000E-03
   6.269811703300000E-03   6.379015577640000E-03   6.490054768380000E-03
   6.602960120430000E-03   6.717762997140000E-03   6.834495288930000E-03
   6.953189422170000E-03   7.073878368240000E-03   7.196595652600000E-03
   7.321375364190000E-03   7.448252164840000E-03   7.577261298920000E-03
   7.708438603130000E-03   7.841820516450000E-03   7.977444090280001E-03
   8.115346998689999E-03   8.255567548950000E-03   8.398144692100000E-03
   8.543118033819999E-03   8.690527845420000E-03   8.840415075020000E-03
   8.992821358919999E-03   9.147789033180000E-03   9.305361145370001E-03
   9.465581466540000E-03   9.628494503360001E-03   9.794145510509999E-03
   9.962580503199999E-03   1.013384627000000E-02   1.030799038590000E-02
   1.048506122540000E-02   1.066510797580000E-02   1.084818065150000E-02
   1.103433010700000E-02   1.122360805180000E-02   1.141606706420000E-02
   1.161176060640000E-02   1.181074303890000E-02   1.201306963590000E-02
   1.221879660060000E-02   1.242798108060000E-02   1.264068118400000E-02
   1.285695599570000E-02   1.307686559330000E-02   1.330047106430000E-02
   1.352783452270000E-02   1.375901912650000E-02   1.399408909510000E-02
   1.423310972730000E-02   1.447614741920000E-02   1.472326968290000E-02
   1.497454516490000E-02   1.523004366570000E-02   1.548983615880000E-02
   1.575399481030000E-02   1.602259299940000E-02   1.629570533840000E-02
   1.657340769350000E-02   1.685577720630000E-02   1.714289231430000E-02
   1.743483277370000E-02   1.773167968090000E-02   1.803351549540000E-02
   1.834042406220000E-02   1.865249063580000E-02   1.896980190340000E-02
   1.929244600890000E-02   1.962051257790000E-02   1.995409274200000E-02
   2.029327916460000E-02   2.063816606620000E-02   2.098884925110000E-02
   2.134542613350000E-02   2.170799576470000E-02   2.207665886090000E-02
   2.245151783100000E-02   2.283267680470000E-02   2.322024166210000E-02
   2.361432006250000E-02   2.401502147470000E-02   2.442245720720000E-02
   2.483674043930000E-02   2.525798625220000E-02   2.568631166150000E-02
   2.612183564910000E-02   2.656467919670000E-02   2.701496531930000E-02
   2.747281909920000E-02   2.793836772100000E-02   2.841174050680000E-02
   2.889306895200000E-02   2.938248676210000E-02   2.988012988960000E-02
   3.038613657190000E-02   3.090064736960000E-02   3.142380520590000E-02
   3.195575540560000E-02   3.249664573600000E-02   3.304662644810000E-02
   3.360585031780000E-02   3.417447268850000E-02   3.475265151470000E-02
   3.534054740520000E-02   3.593832366840000E-02   3.654614635690000E-02
   3.716418431430000E-02   3.779260922180000E-02   3.843159564590000E-02
   3.908132108700000E-02   3.974196602850000E-02   4.041371398720000E-02
   4.109675156400000E-02   4.179126849600000E-02   4.249745770900000E-02
   4.321551537120000E-02   4.394564094780000E-02   4.468803725600000E-02
   4.544291052180000E-02   4.621047043710000E-02   4.699093021800000E-02
   4.778450666380000E-02   4.859142021750000E-02   4.941189502700000E-02
   5.024615900730000E-02   5.109444390360000E-02   5.195698535610000E-02
   5.283402296530000E-02   5.372580035830000E-02   5.463256525680000E-02
   5.555456954570000E-02   5.649206934340000E-02   5.744532507240000E-02
   5.841460153210000E-02   5.940016797220000E-02   6.040229816750000E-02
   6.142127049400000E-02   6.245736800610000E-02   6.351087851520000E-02
   6.458209467010000E-02   6.567131403750000E-02   6.677883918560000E-02
   6.790497776710000E-02   6.905004260570000E-02   7.021435178240000E-02
   7.139822872370000E-02   7.260200229200001E-02   7.382600687660000E-02
   7.507058248670000E-02   7.633607484560000E-02   7.762283548729999E-02
   7.893122185340000E-02   8.026159739300000E-02   8.161433166350000E-02
   8.298980043310000E-02   8.438838578530000E-02   8.581047622500000E-02
   8.725646678640001E-02   8.872675914290000E-02   9.022176171860000E-02
   9.174188980150000E-02   9.328756565910000E-02   9.485921865590000E-02
   9.645728537220000E-02   9.808220972579999E-02   9.973444309479999E-02
   1.014144444440000E-01   1.031226804500000E-01   1.048596256360000E-01
   1.066257624960000E-01   1.084215816350000E-01   1.102475819050000E-01
   1.121042705380000E-01   1.139921632940000E-01   1.159117845990000E-01
   1.178636676940000E-01   1.198483547810000E-01   1.218663971750000E-01
   1.239183554560000E-01   1.260047996270000E-01   1.281263092670000E-01
   1.302834736990000E-01   1.324768921490000E-01   1.347071739150000E-01
   1.369749385320000E-01   1.392808159510000E-01   1.416254467080000E-01
   1.440094821040000E-01   1.464335843860000E-01   1.488984269320000E-01
   1.514046944370000E-01   1.539530831010000E-01   1.565443008270000E-01
   1.591790674140000E-01   1.618581147590000E-01   1.645821870590000E-01
   1.673520410180000E-01   1.701684460570000E-01   1.730321845300000E-01
   1.759440519380000E-01   1.789048571520000E-01   1.819154226360000E-01
   1.849765846790000E-01   1.880891936220000E-01   1.912541141000000E-01
   1.944722252760000E-01   1.977444210930000E-01   2.010716105130000E-01
   2.044547177780000E-01   2.078946826620000E-01   2.113924607310000E-01
   2.149490236150000E-01   2.185653592690000E-01   2.222424722560000E-01
   2.259813840180000E-01   2.297831331660000E-01   2.336487757670000E-01
   2.375793856340000E-01   2.415760546290000E-01   2.456398929640000E-01
   2.497720295090000E-01   2.539736121050000E-01   2.582458078870000E-01
   2.625898036030000E-01   2.670068059450000E-01   2.714980418890000E-01
   2.760647590280000E-01   2.807082259230000E-01   2.854297324580000E-01
   2.902305901910000E-01   2.951121327250000E-01   3.000757160760000E-01
   3.051227190490000E-01   3.102545436210000E-01   3.154726153320000E-01
   3.207783836810000E-01   3.261733225250000E-01   3.316589304940000E-01
   3.372367314030000E-01   3.429082746760000E-01   3.486751357800000E-01
   3.545389166570000E-01   3.605012461720000E-01   3.665637805680000E-01
   3.727282039190000E-01   3.789962286060000E-01   3.853695957860000E-01
   3.918500758810000E-01   3.984394690660000E-01   4.051396057690000E-01
   4.119523471840000E-01   4.188795857810000E-01   4.259232458390000E-01
   4.330852839750000E-01   4.403676896910000E-01   4.477724859230000E-01
   4.553017296060000E-01   4.629575122470000E-01   4.707419605000000E-01
   4.786572367620000E-01   4.867055397720000E-01   4.948891052220000E-01
   5.032102063760000E-01   5.116711547060000E-01   5.202743005280001E-01
   5.290220336620000E-01   5.379167840890000E-01   5.469610226300000E-01
   5.561572616320000E-01   5.655080556650000E-01   5.750160022320000E-01
   5.846837424900000E-01   5.945139619850000E-01   6.045093913970000E-01
   6.146728072980000E-01   6.250070329240000E-01   6.355149389610000E-01
   6.461994443380000E-01   6.570635170419999E-01   6.681101749410000E-01
   6.793424866230000E-01   6.907635722460000E-01   7.023766044080000E-01
   7.141848090239999E-01   7.261914662290000E-01   7.383999112820000E-01
   7.508135354950000E-01   7.634357871790000E-01   7.762701725940000E-01
   7.893202569310001E-01   8.025896652970000E-01   8.160820837240000E-01
   8.298012601930000E-01   8.437510056740000E-01   8.579351951860000E-01
   8.723577688740000E-01   8.870227331000000E-01   9.019341615599999E-01
   9.170961964130000E-01   9.325130494340000E-01   9.481890031790000E-01
   9.641284121830000E-01   9.803357041600000E-01   9.968153812410000E-01
   1.013572021220000E+00   1.030610278830000E+00   1.047934887020000E+00
   1.065550658300000E+00   1.083462486050000E+00   1.101675345900000E+00
   1.120194297090000E+00   1.139024483890000E+00   1.158171137040000E+00
   1.177639575160000E+00   1.197435206280000E+00   1.217563529320000E+00
   1.238030135610000E+00   1.258840710440000E+00   1.280001034670000E+00
   1.301516986300000E+00   1.323394542130000E+00   1.345639779380000E+00
   1.368258877440000E+00   1.391258119540000E+00   1.414643894490000E+00
   1.438422698510000E+00   1.462601136960000E+00   1.487185926240000E+00
   1.512183895610000E+00   1.537601989110000E+00   1.563447267490000E+00
   1.589726910160000E+00   1.616448217180000E+00   1.643618611320000E+00
   1.671245640080000E+00   1.699336977810000E+00   1.727900427840000E+00
   1.756943924660000E+00   1.786475536070000E+00   1.816503465500000E+00
   1.847036054240000E+00   1.878081783750000E+00   1.909649278050000E+00
   1.941747306090000E+00   1.974384784190000E+00   2.007570778530000E+00
   2.041314507650000E+00   2.075625345040000E+00   2.110512821690000E+00
   2.145986628800000E+00   2.182056620440000E+00   2.218732816270000E+00
   2.256025404370000E+00   2.293944744020000E+00   2.332501368620000E+00
   2.371705988600000E+00   2.411569494370000E+00   2.452102959390000E+00
   2.493317643210000E+00   2.535224994630000E+00   2.577836654840000E+00
   2.621164460690000E+00   2.665220447960000E+00   2.710016854710000E+00
   2.755566124670000E+00   2.801880910710000E+00   2.848974078340000E+00
   2.896858709310000E+00   2.945548105210000E+00   2.995055791190000E+00
   3.045395519680000E+00   3.096581274290000E+00   3.148627273600000E+00
   3.201547975170000E+00   3.255358079540000E+00   3.310072534300000E+00
   3.365706538260000E+00   3.422275545670000E+00   3.479795270510000E+00
   3.538281690850000E+00   3.597751053300000E+00   3.658219877490000E+00
   3.719704960730000E+00   3.782223382580000E+00   3.845792509690000E+00
   3.910430000560000E+00   3.976153810440000E+00   4.042982196400000E+00
   4.110933722280000E+00   4.180027263960000E+00   4.250282014530000E+00
   4.321717489650000E+00   4.394353532970000E+00   4.468210321620000E+00
   4.543308371870000E+00   4.619668544760000E+00   4.697312051950000E+00
   4.776260461570000E+00   4.856535704240000E+00   4.938160079170000E+00
   5.021156260310000E+00   5.105547302680000E+00   5.191356648800000E+00
   5.278608135140000E+00   5.367325998790000E+00   5.457534884160000E+00
   5.549259849870000E+00   5.642526375650000E+00   5.737360369480000E+00
   5.833788174740000E+00   5.931836577560000E+00   6.031532814230000E+00
   6.132904578790000E+00   6.235980030710000E+00   6.340787802740000E+00
   6.447357008810000E+00   6.555717252160000E+00   6.665898633570000E+00
   6.777931759670000E+00   6.891847751510000E+00   7.007678253140000E+00
   7.125455440450000E+00   7.245212030080000E+00   7.366981288530000E+00
   7.490797041360000E+00   7.616693682640000E+00   7.744706184470000E+00
   7.874870106700000E+00   8.007221606810001E+00   8.141797449949999E+00
   8.278635019179999E+00   8.417772325810001E+00   8.559248019980000E+00
   8.703101401410001E+00   8.849372430290000E+00   8.998101738420001E+00
   9.149330640430000E+00   9.303101145330000E+00   9.459455968140000E+00
   9.618438541770001E+00   9.780093029050001E+00   9.944464335050000E+00
   1.011159811950000E+01   1.028154080960000E+01   1.045433961270000E+01
   1.063004252950000E+01   1.080869836760000E+01   1.099035675480000E+01
   1.117506815280000E+01   1.136288387160000E+01   1.155385608350000E+01
   1.174803783740000E+01   1.194548307400000E+01   1.214624664050000E+01
   1.235038430590000E+01   1.255795277630000E+01   1.276900971100000E+01
   1.298361373820000E+01   1.320182447170000E+01   1.342370252680000E+01
   1.364930953780000E+01   1.387870817480000E+01   1.411196216100000E+01
   1.434913629090000E+01   1.459029644750000E+01   1.483550962140000E+01
   1.508484392880000E+01   1.533836863110000E+01   1.559615415320000E+01
   1.585827210400000E+01   1.612479529570000E+01   1.639579776420000E+01
   1.667135478970000E+01   1.695154291770000E+01   1.723643997980000E+01
   1.752612511620000E+01   1.782067879660000E+01   1.812018284350000E+01
   1.842472045440000E+01   1.873437622500000E+01   1.904923617280000E+01
   1.936938776080000E+01   1.969491992230000E+01   2.002592308480000E+01
   2.036248919580000E+01   2.070471174800000E+01   2.105268580550000E+01
   2.140650803010000E+01   2.176627670780000E+01   2.213209177680000E+01
   2.250405485460000E+01   2.288226926690000E+01   2.326684007550000E+01
   2.365787410820000E+01   2.405547998810000E+01   2.445976816370000E+01
   2.487085094000000E+01   2.528884250920000E+01   2.571385898290000E+01
   2.614601842380000E+01   2.658544087900000E+01   2.703224841330000E+01
   2.748656514250000E+01   2.794851726890000E+01   2.841823311520000E+01
   2.889584316130000E+01   2.938148007960000E+01   2.987527877240000E+01
   3.037737640920000E+01   3.088791246470000E+01   3.140702875790000E+01
   3.193486949100000E+01   3.247158128990000E+01   3.301731324450000E+01
   3.357221695070000E+01   3.413644655200000E+01   3.471015878230000E+01
   3.529351300990000E+01   3.588667128140000E+01   3.648979836670000E+01
   3.710306180520000E+01   3.772663195150000E+01   3.836068202380000E+01
   3.900538815110000E+01   3.966092942260000E+01   4.032748793720000E+01
   4.100524885450000E+01   4.169440044570000E+01   4.239513414610000E+01
   4.310764460870000E+01   4.383212975750000E+01   4.456879084310000E+01
   4.531783249830000E+01   4.607946279500000E+01   4.685389330210000E+01
   4.764133914420000E+01   4.844201906120000E+01   4.925615546950000E+01
   5.008397452320000E+01   5.092570617740000E+01   5.178158425200000E+01
   5.265184649620000E+01   5.353673465520000E+01   5.443649453700000E+01
   5.535137608060000E+01   5.628163342560000E+01   5.722752498300000E+01
   5.818931350640000E+01   5.916726616550000E+01   6.016165462010000E+01
   6.117275509560000E+01   6.220084845970000E+01   6.324622030060000E+01
   6.430916100600000E+01   6.538996584400000E+01   6.648893504530000E+01
   6.760637388600000E+01   6.874259277310000E+01   6.989790733020000E+01
   7.107263848549999E+01   7.226711256060000E+01   7.348166136170001E+01
   7.471662227130000E+01   7.597233834190000E+01   7.724915839160001E+01
   7.854743710090000E+01   7.986753511120000E+01   8.120981912480001E+01
   8.257466200690000E+01
    </PP_R>
    <PP_RAB>
   3.799508189810000E-06   3.863363979750000E-06   3.928292951200000E-06
   3.994313140390000E-06   4.061442886700000E-06   4.129700837690000E-06
   4.199105954370000E-06   4.269677516360000E-06   4.341435127350000E-06
   4.414398720450000E-06   4.488588563800000E-06   4.564025266170000E-06
   4.640729782690000E-06   4.718723420650000E-06   4.798027845460000E-06
   4.878665086630000E-06   4.960657543920000E-06   5.044027993540000E-06
   5.128799594470000E-06   5.214995894940000E-06   5.302640838920000E-06
   5.391758772770000E-06   5.482374452070000E-06   5.574513048420000E-06
   5.668200156450000E-06   5.763461800970000E-06   5.860324444170000E-06
   5.958814992950000E-06   6.058960806430000E-06   6.160789703540000E-06
   6.264329970740000E-06   6.369610369880000E-06   6.476660146180000E-06
   6.585509036400000E-06   6.696187277030000E-06   6.808725612730000E-06
   6.923155304890000E-06   7.039508140260000E-06   7.157816439820000E-06
   7.278113067750000E-06   7.400431440560000E-06   7.524805536350000E-06
   7.651269904290000E-06   7.779859674170000E-06   7.910610566220000E-06
   8.043558900950000E-06   8.178741609320000E-06   8.316196242950001E-06
   8.455960984570001E-06   8.598074658609999E-06   8.742576742000000E-06
   8.889507375160001E-06   9.038907373080000E-06   9.190818236720001E-06
   9.345282164520000E-06   9.502342064130000E-06   9.662041564309999E-06
   9.824425027039999E-06   9.989537559900001E-06   1.015742502850000E-05
   1.032813406940000E-05   1.050171210290000E-05   1.067820734610000E-05
   1.085766882670000E-05   1.104014639620000E-05   1.122569074410000E-05
   1.141435341150000E-05   1.160618680610000E-05   1.180124421610000E-05
   1.199957982540000E-05   1.220124872840000E-05   1.240630694570000E-05
   1.261481143910000E-05   1.282682012790000E-05   1.304239190470000E-05
   1.326158665210000E-05   1.348446525880000E-05   1.371108963710000E-05
   1.394152273950000E-05   1.417582857670000E-05   1.441407223530000E-05
   1.465631989550000E-05   1.490263884990000E-05   1.515309752200000E-05
   1.540776548530000E-05   1.566671348260000E-05   1.593001344550000E-05
   1.619773851450000E-05   1.646996305950000E-05   1.674676270010000E-05
   1.702821432690000E-05   1.731439612280000E-05   1.760538758450000E-05
   1.790126954480000E-05   1.820212419510000E-05   1.850803510810000E-05
   1.881908726090000E-05   1.913536705900000E-05   1.945696235980000E-05
   1.978396249750000E-05   2.011645830760000E-05   2.045454215220000E-05
   2.079830794550000E-05   2.114785118030000E-05   2.150326895420000E-05
   2.186465999660000E-05   2.223212469630000E-05   2.260576512910000E-05
   2.298568508650000E-05   2.337199010420000E-05   2.376478749170000E-05
   2.416418636180000E-05   2.457029766140000E-05   2.498323420150000E-05
   2.540311068960000E-05   2.583004376070000E-05   2.626415201010000E-05
   2.670555602610000E-05   2.715437842380000E-05   2.761074387900000E-05
   2.807477916290000E-05   2.854661317700000E-05   2.902637698940000E-05
   2.951420387110000E-05   3.001022933240000E-05   3.051459116150000E-05
   3.102742946220000E-05   3.154888669280000E-05   3.207910770580000E-05
   3.261823978840000E-05   3.316643270290000E-05   3.372383872870000E-05
   3.429061270430000E-05   3.486691207050000E-05   3.545289691430000E-05
   3.604873001300000E-05   3.665457687960000E-05   3.727060580880000E-05
   3.789698792370000E-05   3.853389722340000E-05   3.918151063120000E-05
   3.984000804390000E-05   4.050957238170000E-05   4.119038963900000E-05
   4.188264893600000E-05   4.258654257140000E-05   4.330226607590000E-05
   4.403001826610000E-05   4.477000129990000E-05   4.552242073320000E-05
   4.628748557600000E-05   4.706540835130000E-05   4.785640515390000E-05
   4.866069571000000E-05   4.947850343890000E-05   5.031005551470000E-05
   5.115558292950000E-05   5.201532055730000E-05   5.288950721970000E-05
   5.377838575200000E-05   5.468220307060000E-05   5.560121024160000E-05
   5.653566255080000E-05   5.748581957430000E-05   5.845194525060000E-05
   5.943430795420000E-05   6.043318056990000E-05   6.144884056890001E-05
   6.248157008530000E-05   6.353165599520000E-05   6.459938999590000E-05
   6.568506868690000E-05   6.678899365270000E-05   6.791147154620000E-05
   6.905281417400000E-05   7.021333858310001E-05   7.139336714890000E-05
   7.259322766460000E-05   7.381325343249999E-05   7.505378335660001E-05
   7.631516203639999E-05   7.759773986309999E-05   7.890187311640000E-05
   8.022792406409999E-05   8.157626106210000E-05   8.294725865720001E-05
   8.434129769090000E-05   8.575876540510001E-05   8.720005555000000E-05
   8.866556849320000E-05   9.015571133120000E-05   9.167089800210000E-05
   9.321154940070000E-05   9.477809349570000E-05   9.637096544840000E-05
   9.799060773340000E-05   9.963747026170000E-05   1.013120105060000E-04
   1.030146936260000E-04   1.047459926020000E-04   1.065063883600000E-04
   1.082963699110000E-04   1.101164344840000E-04   1.119670876630000E-04
   1.138488435300000E-04   1.157622248090000E-04   1.177077630050000E-04
   1.196859985590000E-04   1.216974809940000E-04   1.237427690660000E-04
   1.258224309260000E-04   1.279370442700000E-04   1.300871965050000E-04
   1.322734849090000E-04   1.344965167970000E-04   1.367569096940000E-04
   1.390552915010000E-04   1.413923006720000E-04   1.437685863910000E-04
   1.461848087540000E-04   1.486416389470000E-04   1.511397594400000E-04
   1.536798641720000E-04   1.562626587430000E-04   1.588888606130000E-04
   1.615591992990000E-04   1.642744165790000E-04   1.670352666980000E-04
   1.698425165770000E-04   1.726969460240000E-04   1.755993479550000E-04
   1.785505286130000E-04   1.815513077870000E-04   1.846025190480000E-04
   1.877050099730000E-04   1.908596423860000E-04   1.940672925930000E-04
   1.973288516300000E-04   2.006452255050000E-04   2.040173354550000E-04
   2.074461181990000E-04   2.109325261990000E-04   2.144775279240000E-04
   2.180821081180000E-04   2.217472680790000E-04   2.254740259280000E-04
   2.292634169020000E-04   2.331164936320000E-04   2.370343264420000E-04
   2.410180036450000E-04   2.450686318430000E-04   2.491873362380000E-04
   2.533752609380000E-04   2.576335692850000E-04   2.619634441690000E-04
   2.663660883610000E-04   2.708427248460000E-04   2.753945971620000E-04
   2.800229697490000E-04   2.847291282940000E-04   2.895143800950000E-04
   2.943800544180000E-04   2.993275028720000E-04   3.043580997790000E-04
   3.094732425600000E-04   3.146743521200000E-04   3.199628732460000E-04
   3.253402750050000E-04   3.308080511540000E-04   3.363677205570000E-04
   3.420208276000000E-04   3.477689426270000E-04   3.536136623750000E-04
   3.595566104140000E-04   3.655994376010000E-04   3.717438225390000E-04
   3.779914720390000E-04   3.843441216010000E-04   3.908035358910000E-04
   3.973715092310000E-04   4.040498661020000E-04   4.108404616440000E-04
   4.177451821780000E-04   4.247659457270000E-04   4.319047025480000E-04
   4.391634356740000E-04   4.465441614680000E-04   4.540489301780000E-04
   4.616798265100000E-04   4.694389702070000E-04   4.773285166360000E-04
   4.853506573900000E-04   4.935076208910000E-04   5.018016730160000E-04
   5.102351177210000E-04   5.188102976840000E-04   5.275295949550000E-04
   5.363954316160001E-04   5.454102704570000E-04   5.545766156590000E-04
   5.638970134860000E-04   5.733740529980000E-04   5.830103667680000E-04
   5.928086316100000E-04   6.027715693290000E-04   6.129019474710000E-04
   6.232025800940000E-04   6.336763285530000E-04   6.443261022890000E-04
   6.551548596400000E-04   6.661656086650001E-04   6.773614079770000E-04
   6.887453675900000E-04   7.003206497900000E-04   7.120904700060000E-04
   7.240580977100000E-04   7.362268573190000E-04   7.486001291220000E-04
   7.611813502200000E-04   7.739740154750001E-04   7.869816784900000E-04
   8.002079525860000E-04   8.136565118150001E-04   8.273310919740000E-04
   8.412354916440000E-04   8.553735732500000E-04   8.697492641250000E-04
   8.843665576110001E-04   8.992295141610000E-04   9.143422624690000E-04
   9.297090006180000E-04   9.453339972460000E-04   9.612215927289999E-04
   9.773762003910001E-04   9.938023077260001E-04   1.010504477650000E-03
   1.027487349760000E-03   1.044755641620000E-03   1.062314150110000E-03
   1.080167752690000E-03   1.098321408820000E-03   1.116780161280000E-03
   1.135549137640000E-03   1.154633551620000E-03   1.174038704560000E-03
   1.193769986920000E-03   1.213832879720000E-03   1.234232956130000E-03
   1.254975882970000E-03   1.276067422280000E-03   1.297513432980000E-03
   1.319319872410000E-03   1.341492798070000E-03   1.364038369250000E-03
   1.386962848740000E-03   1.410272604610000E-03   1.433974111940000E-03
   1.458073954630000E-03   1.482578827240000E-03   1.507495536830000E-03
   1.532831004880000E-03   1.558592269180000E-03   1.584786485790000E-03
   1.611420931060000E-03   1.638503003620000E-03   1.666040226440000E-03
   1.694040248920000E-03   1.722510849030000E-03   1.751459935450000E-03
   1.780895549790000E-03   1.810825868780000E-03   1.841259206600000E-03
   1.872204017160000E-03   1.903668896420000E-03   1.935662584840000E-03
   1.968193969750000E-03   2.001272087870000E-03   2.034906127780000E-03
   2.069105432460000E-03   2.103879501970000E-03   2.139237995970000E-03
   2.175190736500000E-03   2.211747710680000E-03   2.248919073430000E-03
   2.286715150390000E-03   2.325146440710000E-03   2.364223619990000E-03
   2.403957543250000E-03   2.444359247960000E-03   2.485439957060000E-03
   2.527211082140000E-03   2.569684226540000E-03   2.612871188640000E-03
   2.656783965090000E-03   2.701434754170000E-03   2.746835959170000E-03
   2.793000191820000E-03   2.839940275810000E-03   2.887669250360000E-03
   2.936200373830000E-03   2.985547127390000E-03   3.035723218800000E-03
   3.086742586170000E-03   3.138619401890000E-03   3.191368076520000E-03