<UPF version="2.0.1">
  <PP_INFO>
    Generated by new atomic code, or converted to UPF format
    Author: 
    Generation date: 
    Pseudopotential type: US
    Element: Br
    Functional:  SLA  PZ   NOGX NOGC
    Suggested minimum cutoff for wavefunctions:   0. Ry
    Suggested minimum cutoff for charge density:   0. Ry
    The Pseudo was generated with a Non-Relativistic Calculation
    L component and cutoff radius for Local Potential:  0   0.0000
    Valence configuration: 
    nl pn  l   occ       Rcut    Rcut US       E pseu
    4S  1  0  2.00      0.000      0.000     0.000000
    4P  2  1  5.00      0.000      0.000     0.000000
    Generation configuration: not available.
  </PP_INFO>
    <!-- END OF HUMAN READABLE SECTION -->
  <PP_HEADER generated="Generated by new atomic code, or converted to UPF format" author="" date="" comment="" element="Br" pseudo_type="US" relativistic="no" is_ultrasoft="true" is_paw="false" is_coulomb="false" has_so="false" has_wfc="false" has_gipaw="false" paw_as_gipaw="false" core_correction="true" functional=" SLA  PZ   NOGX NOGC" z_valence="7.0000000000000000" total_psenergy="-46.401721609399999" wfc_cutoff="0.0000000000000000" rho_cutoff="0.0000000000000000" l_max="2" l_max_rho="0" l_local="0" mesh_size="879" number_of_wfc="2" number_of_proj="6"/>
  <PP_MESH>
    <PP_R>
   0.000000000000000E+00   1.210594545140000E-06   2.441882514510000E-06
   3.694217633310000E-06   4.967959673200000E-06   6.263474555600000E-06
   7.581134456880000E-06   8.921317915229999E-06   1.028440993940000E-05
   1.167080211940000E-05   1.308089273890000E-05   1.451508688950000E-05
   1.597379658760000E-05   1.745744089210000E-05   1.896644602550000E-05
   2.050124549560000E-05   2.206228022070000E-05   2.364999865580000E-05
   2.526485692170000E-05   2.690731893590000E-05   2.857785654600000E-05
   3.027694966520000E-05   3.200508640990000E-05   3.376276324050000E-05
   3.555048510350000E-05   3.736876557670000E-05   3.921812701700000E-05
   4.109910071020000E-05   4.301222702350000E-05   4.495805556120000E-05
   4.693714532210000E-05   4.895006486040000E-05   5.099739244890000E-05
   5.307971624530000E-05   5.519763446090000E-05   5.735175553260000E-05
   5.954269829770000E-05   6.177109217160000E-05   6.403757732890000E-05
   6.634280488670000E-05   6.868743709250000E-05   7.107214751359999E-05
   7.349762123120000E-05   7.596455503710000E-05   7.847365763340000E-05
   8.102564983689999E-05   8.362126478549999E-05   8.626124814920001E-05
   8.894635834400001E-05   9.167736675029999E-05   9.445505793390000E-05
   9.728022987169999E-05   1.001536941810000E-04   1.030762763520000E-04
   1.060488159870000E-04   1.090721670380000E-04   1.121471980560000E-04
   1.152747924380000E-04   1.184558486810000E-04   1.216912806410000E-04
   1.249820177940000E-04   1.283290055070000E-04   1.317332053040000E-04
   1.351955951450000E-04   1.387171697080000E-04   1.422989406740000E-04
   1.459419370150000E-04   1.496472052950000E-04   1.534158099650000E-04
   1.572488336730000E-04   1.611473775710000E-04   1.651125616360000E-04
   1.691455249890000E-04   1.732474262220000E-04   1.774194437320000E-04
   1.816627760590000E-04   1.859786422300000E-04   1.903682821090000E-04
   1.948329567570000E-04   1.993739487860000E-04   2.039925627370000E-04
   2.086901254470000E-04   2.134679864360000E-04   2.183275182900000E-04
   2.232701170600000E-04   2.282972026570000E-04   2.334102192670000E-04
   2.386106357600000E-04   2.438999461150000E-04   2.492796698490000E-04
   2.547513524520000E-04   2.603165658330000E-04   2.659769087700000E-04
   2.717340073700000E-04   2.775895155350000E-04   2.835451154410000E-04
   2.896025180150000E-04   2.957634634320000E-04   3.020297216130000E-04
   3.084030927320000E-04   3.148854077360000E-04   3.214785288680000E-04
   3.281843502050000E-04   3.350047981980000E-04   3.419418322310000E-04
   3.489974451800000E-04   3.561736639850000E-04   3.634725502350000E-04
   3.708962007590000E-04   3.784467482280000E-04   3.861263617690000E-04
   3.939372475850000E-04   4.018816495940000E-04   4.099618500670000E-04
   4.181801702910000E-04   4.265389712290000E-04   4.350406542040000E-04
   4.436876615840000E-04   4.524824774880000E-04   4.614276284950000E-04
   4.705256843740000E-04   4.797792588220000E-04   4.891910102100000E-04
   4.987636423530001E-04   5.084999052830000E-04   5.184025960400000E-04
   5.284745594740000E-04   5.387186890670000E-04   5.491379277590000E-04
   5.597352687950000E-04   5.705137565860000E-04   5.814764875829999E-04
   5.926266111670000E-04   6.039673305520000E-04   6.155019037080000E-04
   6.272336442950000E-04   6.391659226130000E-04   6.513021665770000E-04
   6.636458626930000E-04   6.762005570680000E-04   6.889698564220000E-04
   7.019574291270000E-04   7.151670062610000E-04   7.286023826820000E-04
   7.422674181120000E-04   7.561660382510000E-04   7.703022359039999E-04
   7.846800721280000E-04   7.993036773960000E-04   8.141772527870000E-04
   8.293050711920000E-04   8.446914785400000E-04   8.603408950480000E-04
   8.762578164900000E-04   8.924468154910000E-04   9.089125428360000E-04
   9.256597288100000E-04   9.426931845560000E-04   9.600178034560000E-04
   9.776385625369999E-04   9.955605239029999E-04   1.013788836190000E-03
   1.032328736030000E-03   1.051185549580000E-03   1.070364694050000E-03
   1.089871679230000E-03   1.109712109090000E-03   1.129891683410000E-03
   1.150416199390000E-03   1.171291553330000E-03   1.192523742310000E-03
   1.214118865920000E-03   1.236083128040000E-03   1.258422838560000E-03
   1.281144415260000E-03   1.304254385600000E-03   1.327759388640000E-03
   1.351666176890000E-03   1.375981618330000E-03   1.400712698300000E-03
   1.425866521570000E-03   1.451450314340000E-03   1.477471426350000E-03
   1.503937332940000E-03   1.530855637280000E-03   1.558234072460000E-03
   1.586080503780000E-03   1.614402930990000E-03   1.643209490550000E-03
   1.672508458050000E-03   1.702308250510000E-03   1.732617428840000E-03
   1.763444700260000E-03   1.794798920870000E-03   1.826689098120000E-03
   1.859124393450000E-03   1.892114124880000E-03   1.925667769730000E-03
   1.959794967310000E-03   1.994505521710000E-03   2.029809404590000E-03
   2.065716758070000E-03   2.102237897660000E-03   2.139383315150000E-03
   2.177163681720000E-03   2.215589850920000E-03   2.254672861860000E-03
   2.294423942330000E-03   2.334854512040000E-03   2.375976185910000E-03
   2.417800777410000E-03   2.460340301930000E-03   2.503606980250000E-03
   2.547613242060000E-03   2.592371729490000E-03   2.637895300800000E-03
   2.684197034030000E-03   2.731290230770000E-03   2.779188419990000E-03
   2.827905361900000E-03   2.877455051940000E-03   2.927851724780000E-03
   2.979109858420000E-03   3.031244178300000E-03   3.084269661630000E-03
   3.138201541590000E-03   3.193055311780000E-03   3.248846730600000E-03
   3.305591825870000E-03   3.363306899350000E-03   3.422008531470000E-03
   3.481713586060000E-03   3.542439215230000E-03   3.604202864280000E-03
   3.667022276720000E-03   3.730915499340000E-03   3.795900887430000E-03
   3.861997110030000E-03   3.929223155320000E-03   3.997598336030000E-03
   4.067142295020000E-03   4.137875010940000E-03   4.209816803930000E-03
   4.282988341460000E-03   4.357410644300000E-03   4.433105092550000E-03
   4.510093431750000E-03   4.588397779160000E-03   4.668040630110000E-03
   4.749044864450000E-03   4.831433753120000E-03   4.915230964860000E-03
   5.000460572990000E-03   5.087147062320000E-03   5.175315336200000E-03
   5.264990723680000E-03   5.356198986750000E-03   5.448966327790000E-03
   5.543319397060000E-03   5.639285300370000E-03   5.736891606860000E-03
   5.836166356940000E-03   5.937138070320000E-03   6.039835754230000E-03
   6.144288911720000E-03   6.250527550150000E-03   6.358582189850000E-03
   6.468483872810000E-03   6.580264171650000E-03   6.693955198710000E-03
   6.809589615200000E-03   6.927200640660000E-03   7.046822062460000E-03
   7.168488245520000E-03   7.292234142190000E-03   7.418095302250000E-03
   7.546107883200000E-03   7.676308660550000E-03   7.808735038490000E-03
   7.943425060540001E-03   8.080417420540000E-03   8.219751473750000E-03
   8.361467248150000E-03   8.505605455920001E-03   8.652207505200000E-03
   8.801315511909999E-03   8.952972311890000E-03   9.107221473220000E-03
   9.264107308690000E-03   9.423674888560000E-03   9.585970053520000E-03
   9.751039427819999E-03   9.918930432700000E-03   1.008969130000000E-02
   1.026337108600000E-02   1.044001968560000E-02   1.061968784640000E-02
   1.080242718370000E-02   1.098829019490000E-02   1.117733027500000E-02
   1.136960173130000E-02   1.156515979990000E-02   1.176406066070000E-02
   1.196636145420000E-02   1.217212029740000E-02   1.238139630080000E-02
   1.259424958550000E-02   1.281074130000000E-02   1.303093363820000E-02
   1.325488985720000E-02   1.348267429510000E-02   1.371435239010000E-02
   1.394999069880000E-02   1.418965691560000E-02   1.443341989180000E-02
   1.468134965590000E-02   1.493351743340000E-02   1.518999566700000E-02
   1.545085803810000E-02   1.571617948740000E-02   1.598603623660000E-02
   1.626050581030000E-02   1.653966705820000E-02   1.682360017820000E-02
   1.711238673850000E-02   1.740610970210000E-02   1.770485344980000E-02
   1.800870380490000E-02   1.831774805780000E-02   1.863207499090000E-02
   1.895177490420000E-02   1.927693964140000E-02   1.960766261600000E-02
   1.994403883820000E-02   2.028616494250000E-02   2.063413921510000E-02
   2.098806162230000E-02   2.134803383900000E-02   2.171415927840000E-02
   2.208654312130000E-02   2.246529234620000E-02   2.285051576050000E-02
   2.324232403150000E-02   2.364082971810000E-02   2.404614730320000E-02
   2.445839322680000E-02   2.487768591900000E-02   2.530414583470000E-02
   2.573789548750000E-02   2.617905948530000E-02   2.662776456590000E-02
   2.708413963360000E-02   2.754831579620000E-02   2.802042640250000E-02
   2.850060708070000E-02   2.898899577740000E-02   2.948573279730000E-02
   2.999096084340000E-02   3.050482505770000E-02   3.102747306370000E-02
   3.155905500790000E-02   3.209972360360000E-02   3.264963417430000E-02
   3.320894469880000E-02   3.377781585610000E-02   3.435641107190000E-02
   3.494489656550000E-02   3.554344139720000E-02   3.615221751760000E-02
   3.677139981600000E-02   3.740116617180000E-02   3.804169750450000E-02
   3.869317782630000E-02   3.935579429510000E-02   4.002973726760000E-02
   4.071520035470000E-02   4.141238047670000E-02   4.212147791980000E-02
   4.284269639400000E-02   4.357624309160000E-02   4.432232874620000E-02
   4.508116769380000E-02   4.585297793420000E-02   4.663798119350000E-02
   4.743640298790000E-02   4.824847268870000E-02   4.907442358760000E-02
   4.991449296450000E-02   5.076892215490000E-02   5.163795661990000E-02
   5.252184601620000E-02   5.342084426820000E-02   5.433520964060000E-02
   5.526520481300000E-02   5.621109695500000E-02   5.717315780300000E-02
   5.815166373860000E-02   5.914689586750000E-02   6.015914010070000E-02
   6.118868723630000E-02   6.223583304340000E-02   6.330087834670001E-02
   6.438412911300000E-02   6.548589653930000E-02   6.660649714220000E-02
   6.774625284850000E-02   6.890549108790001E-02   7.008454488710000E-02
   7.128375296559999E-02   7.250345983250001E-02   7.374401588610000E-02
   7.500577751409999E-02   7.628910719610001E-02   7.759437360810000E-02
   7.892195172770000E-02   8.027222294250000E-02   8.164557515920000E-02
   8.304240291539999E-02   8.446310749270000E-02   8.590809703200000E-02
   8.737778665080000E-02   8.887259856250000E-02   9.039296219770000E-02
   9.193931432730000E-02   9.351209918860000E-02   9.511176861200001E-02
   9.673878215170000E-02   9.839360721710000E-02   1.000767192080000E-01
   1.017886016490000E-01   1.035297463310000E-01   1.053006534510000E-01
   1.071018317580000E-01   1.089337986930000E-01   1.107970805470000E-01
   1.126922126040000E-01   1.146197392980000E-01   1.165802143710000E-01
   1.185742010290000E-01   1.206022721060000E-01   1.226650102280000E-01
   1.247630079800000E-01   1.268968680750000E-01   1.290672035300000E-01
   1.312746378410000E-01   1.335198051610000E-01   1.358033504830000E-01
   1.381259298250000E-01   1.404882104190000E-01   1.428908709040000E-01
   1.453346015160000E-01   1.478201042920000E-01   1.503480932700000E-01
   1.529192946910000E-01   1.555344472120000E-01   1.581943021160000E-01
   1.608996235270000E-01   1.636511886320000E-01   1.664497879020000E-01
   1.692962253220000E-01   1.721913186160000E-01   1.751358994900000E-01
   1.781308138640000E-01   1.811769221200000E-01   1.842750993450000E-01
   1.874262355860000E-01   1.906312361030000E-01   1.938910216310000E-01
   1.972065286440000E-01   2.005787096210000E-01   2.040085333270000E-01
   2.074969850810000E-01   2.110450670500000E-01   2.146537985290000E-01
   2.183242162350000E-01   2.220573746100000E-01   2.258543461170000E-01
   2.297162215530000E-01   2.336441103600000E-01   2.376391409440000E-01
   2.417024610010000E-01   2.458352378430000E-01   2.500386587380000E-01
   2.543139312460000E-01   2.586622835710000E-01   2.630849649110000E-01
   2.675832458160000E-01   2.721584185540000E-01   2.768117974860000E-01
   2.815447194370000E-01   2.863585440820000E-01   2.912546543420000E-01
   2.962344567740000E-01   3.012993819780000E-01   3.064508850100000E-01
   3.116904457970000E-01   3.170195695630000E-01   3.224397872620000E-01
   3.279526560180000E-01   3.335597595720000E-01   3.392627087360000E-01
   3.450631418570000E-01   3.509627252870000E-01   3.569631538620000E-01
   3.630661513890000E-01   3.692734711420000E-01   3.755868963620000E-01
   3.820082407760000E-01   3.885393491110000E-01   3.951820976270000E-01
   4.019383946590000E-01   4.088101811600000E-01   4.157994312600000E-01
   4.229081528370000E-01   4.301383880880000E-01   4.374922141200000E-01
   4.449717435450000E-01   4.525791250870000E-01   4.603165441990000E-01
   4.681862236930000E-01   4.761904243740000E-01   4.843314456950000E-01
   4.926116264150000E-01   5.010333452670001E-01   5.095990216500000E-01
   5.183111163170000E-01   5.271721320830000E-01   5.361846145460000E-01
   5.453511528200000E-01   5.546743802730000E-01   5.641569752870000E-01
   5.738016620290000E-01   5.836112112300000E-01   5.935884409850000E-01
   6.037362175580000E-01   6.140574562100000E-01   6.245551220310001E-01
   6.352322307990000E-01   6.460918498410000E-01   6.571370989140000E-01
   6.683711511050000E-01   6.797972337390000E-01   6.914186293110000E-01
   7.032386764200000E-01   7.152607707380000E-01   7.274883659810000E-01
   7.399249748990000E-01   7.525741702910000E-01   7.654395860240000E-01
   7.785249180830000E-01   7.918339256330000E-01   8.053704320920000E-01
   8.191383262370000E-01   8.331415633180000E-01   8.473841661940000E-01
   8.618702264880000E-01   8.766039057670000E-01   8.915894367300000E-01
   9.068311244310000E-01   9.223333475120000E-01   9.381005594620000E-01
   9.541372898940000E-01   9.704481458530000E-01   9.870378131300001E-01
   1.003911057620000E+00   1.021072726670000E+00   1.038527750500000E+00
   1.056281143610000E+00   1.074338006190000E+00   1.092703525640000E+00
   1.111382978020000E+00   1.130381729560000E+00   1.149705238240000E+00
   1.169359055340000E+00   1.189348827020000E+00   1.209680295940000E+00
   1.230359302940000E+00   1.251391788720000E+00   1.272783795480000E+00
   1.294541468740000E+00   1.316671059070000E+00   1.339178923850000E+00
   1.362071529170000E+00   1.385355451630000E+00   1.409037380250000E+00
   1.433124118390000E+00   1.457622585700000E+00   1.482539820120000E+00
   1.507882979890000E+00   1.533659345600000E+00   1.559876322310000E+00
   1.586541441650000E+00   1.613662363990000E+00   1.641246880650000E+00
   1.669302916120000E+00   1.697838530370000E+00   1.726861921110000E+00
   1.756381426220000E+00   1.786405526060000E+00   1.816942845990000E+00
   1.848002158790000E+00   1.879592387190000E+00   1.911722606460000E+00
   1.944402046990000E+00   1.977640096940000E+00   2.011446304970000E+00
   2.045830382950000E+00   2.080802208750000E+00   2.116371829110000E+00
   2.152549462480000E+00   2.189345502010000E+00   2.226770518480000E+00
   2.264835263380000E+00   2.303550671970000E+00   2.342927866430000E+00
   2.382978159080000E+00   2.423713055590000E+00   2.465144258300000E+00
   2.507283669610000E+00   2.550143395330000E+00   2.593735748260000E+00
   2.638073251610000E+00   2.683168642710000E+00   2.729034876590000E+00
   2.775685129720000E+00   2.823132803820000E+00   2.871391529700000E+00
   2.920475171140000E+00   2.970397828930000E+00   3.021173844880000E+00
   3.072817805960000E+00   3.125344548490000E+00   3.178769162360000E+00
   3.233106995450000E+00   3.288373657970000E+00   3.344585026950000E+00
   3.401757250830000E+00   3.459906754090000E+00   3.519050241950000E+00
   3.579204705200000E+00   3.640387425040000E+00   3.702615978090000E+00
   3.765908241410000E+00   3.830282397640000E+00   3.895756940230000E+00
   3.962350678740000E+00   4.030082744280000E+00   4.098972594950000E+00
   4.169040021480000E+00   4.240305152870000E+00   4.312788462220000E+00
   4.386510772590000E+00   4.461493262970000E+00   4.537757474380000E+00
   4.615325316040000E+00   4.694219071700000E+00   4.774461406010000E+00
   4.856075371040000E+00   4.939084412900000E+00   5.023512378480000E+00
   5.109383522300000E+00   5.196722513480000E+00   5.285554442830000E+00
   5.375904830030000E+00   5.467799631010000E+00   5.561265245360000E+00
   5.656328523950000E+00   5.753016776610000E+00   5.851357780010000E+00
   5.951379785620000E+00   6.053111527830000E+00   6.156582232180000E+00
   6.261821623830000E+00   6.368859936000000E+00   6.477727918730000E+00
   6.588456847690000E+00   6.701078533160000E+00   6.815625329160000E+00
   6.932130142780000E+00   7.050626443590000E+00   7.171148273290000E+00
   7.293730255460000E+00   7.418407605540000E+00   7.545216140920000E+00
   7.674192291240000E+00   7.805373108850000E+00   7.938796279450000E+00
   8.074500132950000E+00   8.212523654440000E+00   8.352906495399999E+00
   8.495688985099999E+00   8.640912142199999E+00   8.788617686489999E+00
   8.938848050920001E+00   9.091646393770001E+00   9.247056611040000E+00
   9.405123349080000E+00   9.565892017410000E+00   9.729408801749999E+00
   9.895720677320000E+00   1.006487542230000E+01   1.023692163160000E+01
   1.041190873070000E+01   1.058988699000000E+01   1.077090753930000E+01
   1.095502238220000E+01   1.114228441150000E+01   1.133274742380000E+01
   1.152646613540000E+01   1.172349619810000E+01   1.192389421480000E+01
   1.212771775580000E+01   1.233502537580000E+01   1.254587663030000E+01
   1.276033209270000E+01   1.297845337190000E+01   1.320030313000000E+01
   1.342594510010000E+01   1.365544410470000E+01   1.388886607460000E+01
   1.412627806720000E+01   1.436774828660000E+01   1.461334610230000E+01
   1.486314206990000E+01   1.511720795100000E+01   1.537561673370000E+01
   1.563844265400000E+01   1.590576121650000E+01   1.617764921680000E+01
   1.645418476300000E+01   1.673544729840000E+01   1.702151762440000E+01
   1.731247792330000E+01   1.760841178250000E+01   1.790940421790000E+01
   1.821554169900000E+01   1.852691217310000E+01   1.884360509090000E+01
   1.916571143210000E+01   1.949332373170000E+01   1.982653610640000E+01
   2.016544428150000E+01   2.051014561900000E+01   2.086073914470000E+01
   2.121732557740000E+01   2.158000735760000E+01   2.194888867660000E+01
   2.232407550690000E+01   2.270567563250000E+01   2.309379867970000E+01
   2.348855614870000E+01   2.389006144570000E+01   2.429842991550000E+01
   2.471377887420000E+01   2.513622764380000E+01   2.556589758550000E+01
   2.600291213520000E+01   2.644739683870000E+01   2.689947938790000E+01
   2.735928965740000E+01   2.782695974170000E+01   2.830262399340000E+01
   2.878641906160000E+01   2.927848393140000E+01   2.977895996330000E+01
   3.028799093460000E+01   3.080572307980000E+01   3.133230513360000E+01
   3.186788837270000E+01   3.241262665970000E+01   3.296667648760000E+01
   3.353019702400000E+01   3.410335015750000E+01   3.468630054400000E+01
   3.527921565370000E+01   3.588226581970000E+01   3.649562428670000E+01
   3.711946726070000E+01   3.775397395970000E+01   3.839932666520000E+01
   3.905571077450000E+01   3.972331485410000E+01   4.040233069370000E+01
   4.109295336150000E+01   4.179538125990000E+01   4.250981618290000E+01
   4.323646337390000E+01   4.397553158450000E+01   4.472723313470000E+01
   4.549178397380000E+01   4.626940374240000E+01   4.706031583580000E+01
   4.786474746760000E+01   4.868292973550000E+01   4.951509768730000E+01
   5.036149038890000E+01   5.122235099260000E+01   5.209792680680000E+01
   5.298846936750000E+01   5.389423451050000E+01   5.481548244460000E+01
   5.575247782630000E+01   5.670548983650000E+01   5.767479225680000E+01
   5.866066354940000E+01   5.966338693570000E+01   6.068325047890000E+01
   6.172054716610000E+01   6.277557499250000E+01   6.384863704710000E+01
   6.494004160000000E+01   6.605010219050000E+01   6.717913771770000E+01
   6.832747253140001E+01   6.949543652620000E+01   7.068336523540000E+01
   7.189159992810001E+01   7.312048770650000E+01   7.437038160650000E+01
   7.564164069840000E+01   7.693463019020000E+01   7.824972153290000E+01
   7.958729252670000E+01   8.094772743000000E+01   8.233141706920000E+01
   8.373875895179999E+01   8.517015737970000E+01   8.662602356610000E+01
   8.810677575310000E+01   8.961283933220000E+01   9.114464696620000E+01
   9.270263871400000E+01   9.428726215640000E+01   9.589897252490000E+01
   9.753823283300000E+01   9.920551400810000E+01   1.009012950280000E+02
   1.026260630580000E+02   1.043803135900000E+02   1.061645505870000E+02
   1.079792866250000E+02   1.098250430430000E+02   1.117023500920000E+02
   1.136117470840000E+02   1.155537825520000E+02   1.175290144070000E+02
   1.195380100940000E+02   1.215813467580000E+02   1.236596114110000E+02
   1.257734010980000E+02   1.279233230690000E+02   1.301099949560000E+02
   1.323340449470000E+02   1.345961119690000E+02   1.368968458700000E+02
   1.392369076050000E+02   1.416169694300000E+02   1.440377150910000E+02
   1.464998400200000E+02   1.490040515390000E+02   1.515510690580000E+02
   1.541416242880000E+02   1.567764614430000E+02   1.594563374630000E+02
   1.621820222230000E+02   1.649542987600000E+02   1.677739634950000E+02
   1.706418264640000E+02   1.735587115480000E+02   1.765254567120000E+02
   1.795429142440000E+02   1.826119510010000E+02   1.857334486580000E+02
   1.889083039610000E+02   1.921374289850000E+02   1.954217513950000E+02
   1.987622147120000E+02   2.021597785880000E+02   2.056154190770000E+02
    </PP_R>
    <PP_RAB>
   1.200364250200000E-06   1.220882801810000E-06   1.241752089430000E-06
   1.262978108390000E-06   1.284566956530000E-06   1.306524835890000E-06
   1.328858054560000E-06   1.351573028430000E-06   1.374676283070000E-06
   1.398174455620000E-06   1.422074296620000E-06   1.446382672060000E-06
   1.471106565250000E-06   1.496253078880000E-06   1.521829437070000E-06
   1.547842987410000E-06   1.574301203090000E-06   1.601211685040000E-06
   1.628582164130000E-06   1.656420503350000E-06   1.684734700130000E-06
   1.713532888590000E-06   1.742823341900000E-06   1.772614474620000E-06
   1.802914845180000E-06   1.833733158280000E-06   1.865078267440000E-06
   1.896959177490000E-06   1.929385047210000E-06   1.962365191920000E-06
   1.995909086170000E-06   2.030026366480000E-06   2.064726834080000E-06
   2.100020457750000E-06   2.135917376660000E-06   2.172427903300000E-06
   2.209562526430000E-06   2.247331914130000E-06   2.285746916790000E-06
   2.324818570320000E-06   2.364558099230000E-06   2.404976919920000E-06
   2.446086643950000E-06   2.487899081340000E-06   2.530426243990000E-06
   2.573680349130000E-06   2.617673822840000E-06   2.662419303580000E-06
   2.707929645860000E-06   2.754217923940000E-06   2.801297435520000E-06
   2.849181705650000E-06   2.897884490560000E-06   2.947419781590000E-06
   2.997801809300000E-06   3.049045047460000E-06   3.101164217260000E-06
   3.154174291520000E-06   3.208090499030000E-06   3.262928328850000E-06
   3.318703534850000E-06   3.375432140150000E-06   3.433130441790000E-06
   3.491815015370000E-06   3.551502719830000E-06   3.612210702300000E-06
   3.673956403010000E-06   3.736757560290000E-06   3.800632215710000E-06
   3.865598719230000E-06   3.931675734450000E-06   3.998882244030000E-06
   4.067237555100000E-06   4.136761304810000E-06   4.207473466000000E-06
   4.279394352890000E-06   4.352544626970000E-06   4.426945302900000E-06
   4.502617754550000E-06   4.579583721150000E-06   4.657865313530000E-06
   4.737485020490000E-06   4.818465715220000E-06   4.900830661900000E-06
   4.984603522400000E-06   5.069808363040000E-06   5.156469661510000E-06
   5.244612313930000E-06   5.334261641990000E-06   5.425443400190000E-06
   5.518183783290000E-06   5.612509433820000E-06   5.708447449690000E-06
   5.806025392060000E-06   5.905271293170000E-06   6.006213664450000E-06
   6.108881504690000E-06   6.213304308370000E-06   6.319512074150000E-06
   6.427535313460000E-06   6.537405059290000E-06   6.649152875090000E-06
   6.762810863840000E-06   6.878411677290000E-06   6.995988525310000E-06
   7.115575185450000E-06   7.237206012650000E-06   7.360915949100000E-06
   7.486740534250000E-06   7.614715915090000E-06   7.744878856460000E-06
   7.877266751650001E-06   8.011917633150000E-06   8.148870183550000E-06
   8.288163746660001E-06   8.429838338840000E-06   8.573934660440001E-06
   8.720494107560000E-06   8.869558783889999E-06   9.021171512819999E-06
   9.175375849770001E-06   9.332216094640000E-06   9.491737304609999E-06
   9.653985307040001E-06   9.819006712630000E-06   9.986848928839999E-06
   1.015756017350000E-05   1.033118948860000E-05   1.050778675460000E-05
   1.068740270440000E-05   1.087008893810000E-05   1.105589793810000E-05
   1.124488308350000E-05   1.143709866630000E-05   1.163259990630000E-05
   1.183144296710000E-05   1.203368497250000E-05   1.223938402270000E-05
   1.244859921110000E-05   1.266139064120000E-05   1.287781944380000E-05
   1.309794779470000E-05   1.332183893260000E-05   1.354955717700000E-05
   1.378116794700000E-05   1.401673777990000E-05   1.425633435030000E-05
   1.450002648970000E-05   1.474788420610000E-05   1.499997870420000E-05
   1.525638240600000E-05   1.551716897120000E-05   1.578241331880000E-05
   1.605219164830000E-05   1.632658146190000E-05   1.660566158640000E-05
   1.688951219610000E-05   1.717821483590000E-05   1.747185244440000E-05
   1.777050937800000E-05   1.807427143500000E-05   1.838322588050000E-05
   1.869746147100000E-05   1.901706848050000E-05   1.934213872560000E-05
   1.967276559300000E-05   2.000904406520000E-05   2.035107074860000E-05
   2.069894390090000E-05   2.105276345910000E-05   2.141263106890000E-05
   2.177865011330000E-05   2.215092574240000E-05   2.252956490380000E-05
   2.291467637330000E-05   2.330637078590000E-05   2.370476066780000E-05
   2.410996046870000E-05   2.452208659470000E-05   2.494125744170000E-05
   2.536759342930000E-05   2.580121703560000E-05   2.624225283230000E-05
   2.669082752040000E-05   2.714706996680000E-05   2.761111124110000E-05
   2.808308465330000E-05   2.856312579230000E-05   2.905137256470000E-05
   2.954796523420000E-05   3.005304646230000E-05   3.056676134910000E-05
   3.108925747500000E-05   3.162068494300000E-05   3.216119642180000E-05
   3.271094719000000E-05   3.327009518040000E-05   3.383880102530000E-05
   3.441722810300000E-05   3.500554258420000E-05   3.560391348050000E-05
   3.621251269210000E-05   3.683151505790000E-05   3.746109840530000E-05
   3.810144360130000E-05   3.875273460480000E-05   3.941515851900000E-05
   4.008890564560000E-05   4.077416953900000E-05   4.147114706220000E-05
   4.218003844360000E-05   4.290104733370000E-05   4.363438086460000E-05
   4.438024970880000E-05   4.513886813990000E-05   4.591045409430000E-05
   4.669522923380000E-05   4.749341900900000E-05   4.830525272450000E-05
   4.913096360440000E-05   4.997078885940000E-05   5.082496975500000E-05
   5.169375168100000E-05   5.257738422150000E-05   5.347612122700000E-05
   5.439022088740000E-05   5.531994580570000E-05   5.626556307400000E-05
   5.722734434980000E-05   5.820556593420000E-05   5.920050885130000E-05
   6.021245892910000E-05   6.124170688120000E-05   6.228854839060000E-05
   6.335328419460000E-05   6.443622017120000E-05   6.553766742689999E-05
   6.665794238630000E-05   6.779736688270000E-05   6.895626825060000E-05
   7.013497942010000E-05   7.133383901190000E-05   7.255319143540000E-05
   7.379338698670000E-05   7.505478195020000E-05   7.633773870020001E-05
   7.764262580530000E-05   7.896981813429999E-05   8.031969696400000E-05
   8.169265008829999E-05   8.308907193020000E-05   8.450936365460000E-05
   8.595393328390000E-05   8.742319581490000E-05   8.891757333840001E-05
   9.043749516000000E-05   9.198339792400000E-05   9.355572573820000E-05
   9.515493030209999E-05   9.678147103610000E-05   9.843581521389999E-05
   1.001184380970000E-04   1.018298230690000E-04   1.035704617800000E-04
   1.053408542790000E-04   1.071415091680000E-04   1.089729437390000E-04
   1.108356841280000E-04   1.127302654650000E-04   1.146572320250000E-04
   1.166171373890000E-04   1.186105446000000E-04   1.206380263260000E-04
   1.227001650220000E-04   1.247975531010000E-04   1.269307931020000E-04
   1.291004978640000E-04   1.313072907000000E-04   1.335518055810000E-04
   1.358346873100000E-04   1.381565917170000E-04   1.405181858390000E-04
   1.429201481170000E-04   1.453631685880000E-04   1.478479490840000E-04
   1.503752034350000E-04   1.529456576720000E-04   1.555600502370000E-04
   1.582191321940000E-04   1.609236674460000E-04   1.636744329540000E-04
   1.664722189590000E-04   1.693178292110000E-04   1.722120811990000E-04
   1.751558063860000E-04   1.781498504460000E-04   1.811950735110000E-04