<UPF version="2.0.1">
  <PP_INFO>
    Generated by new atomic code, or converted to UPF format
    Author: 
    Generation date: 
    Pseudopotential type: US
    Element: C
    Functional: SLA  PZ   NOGX NOGC
    Suggested minimum cutoff for wavefunctions:   0. Ry
    Suggested minimum cutoff for charge density:   0. Ry
    The Pseudo was generated with a Non-Relativistic Calculation
    L component and cutoff radius for Local Potential:  0   0.0000
    Valence configuration: 
    nl pn  l   occ       Rcut    Rcut US       E pseu
    2S  1  0  2.00      0.000      0.000     0.000000
    2P  2  1  2.00      0.000      0.000     0.000000
    Generation configuration: not available.
  </PP_INFO>
    <!-- END OF HUMAN READABLE SECTION -->
  <PP_HEADER generated="Generated by new atomic code, or converted to UPF format" author="" date="" comment="" element="C" pseudo_type="US" relativistic="no" is_ultrasoft="true" is_paw="false" is_coulomb="false" has_so="false" has_wfc="false" has_gipaw="false" paw_as_gipaw="false" core_correction="true" functional="SLA  PZ   NOGX NOGC" z_valence="4.0000000000000000" total_psenergy="-10.784726467800001" wfc_cutoff="0.0000000000000000" rho_cutoff="0.0000000000000000" l_max="1" l_max_rho="0" l_local="0" mesh_size="721" number_of_wfc="2" number_of_proj="4"/>
  <PP_MESH>
    <PP_R>
   0.000000000000000E+00   7.061801513330000E-06   1.424431466800000E-05
   2.154960286100000E-05   2.897976476030000E-05   3.653693490770000E-05
   4.422328433180000E-05   5.204102117220000E-05   5.999239131330000E-05
   6.807967902990000E-05   7.630520764330000E-05   8.467134018869999E-05
   9.318048009410000E-05   1.018350718710000E-04   1.106376018150000E-04
   1.195905987240000E-04   1.286966346210000E-04   1.379583254920000E-04
   1.473783320430000E-04   1.569593604590000E-04   1.667041631850000E-04
   1.766155397140000E-04   1.866963373910000E-04   1.969494522360000E-04
   2.073778297700000E-04   2.179844658640000E-04   2.287724075990000E-04
   2.397447541430000E-04   2.509046576370000E-04   2.622553241070000E-04
   2.738000143790000E-04   2.855420450190000E-04   2.974847892850000E-04
   3.096316780980000E-04   3.219862010220000E-04   3.345519072730000E-04
   3.473324067360000E-04   3.603313710010000E-04   3.735525344180000E-04
   3.869996951730000E-04   4.006767163730000E-04   4.145875271630000E-04
   4.287361238490000E-04   4.431265710500000E-04   4.577630028610000E-04
   4.726496240480000E-04   4.877907112490000E-04   5.031906142030000E-04
   5.188537570069999E-04   5.347846393770000E-04   5.509878379480000E-04
   5.674680075850000E-04   5.842298827220000E-04   6.012782787210000E-04
   6.186180932570000E-04   6.362543077230000E-04   6.541919886610000E-04
   6.724362892220000E-04   6.909924506380000E-04   7.098658037370000E-04
   7.290617704660000E-04   7.485858654570000E-04   7.684436976040000E-04
   7.886409716770000E-04   8.091834899640000E-04   8.300771539300000E-04
   8.513279659230000E-04   8.729420308890000E-04   8.949255581310000E-04
   9.172848630899999E-04   9.400263691630000E-04   9.631566095430000E-04
   9.866822291020000E-04   1.010609986300000E-03   1.034946755100000E-03
   1.059699527010000E-03   1.084875413010000E-03   1.110481645640000E-03
   1.136525581080000E-03   1.163014701250000E-03   1.189956615960000E-03
   1.217359065110000E-03   1.245229920880000E-03   1.273577190030000E-03
   1.302409016180000E-03   1.331733682170000E-03   1.361559612390000E-03
   1.391895375270000E-03   1.422749685670000E-03   1.454131407450000E-03
   1.486049555970000E-03   1.518513300690000E-03   1.551531967820000E-03
   1.585115042990000E-03   1.619272173950000E-03   1.654013173400000E-03
   1.689348021750000E-03   1.725286870020000E-03   1.761840042740000E-03
   1.799018040940000E-03   1.836831545130000E-03   1.875291418400000E-03
   1.914408709530000E-03   1.954194656160000E-03   1.994660688020000E-03
   2.035818430210000E-03   2.077679706580000E-03   2.120256543040000E-03
   2.163561171090000E-03   2.207606031330000E-03   2.252403776990000E-03
   2.297967277580000E-03   2.344309622630000E-03   2.391444125390000E-03
   2.439384326700000E-03   2.488143998840000E-03   2.537737149520000E-03
   2.588178025910000E-03   2.639481118680000E-03   2.691661166220000E-03
   2.744733158850000E-03   2.798712343130000E-03   2.853614226230000E-03
   2.909454580390000E-03   2.966249447480000E-03   3.024015143560000E-03
   3.082768263600000E-03   3.142525686230000E-03   3.203304578590000E-03
   3.265122401300000E-03   3.327996913420000E-03   3.391946177570000E-03
   3.456988565140000E-03   3.523142761560000E-03   3.590427771630000E-03
   3.658862925050000E-03   3.728467881910000E-03   3.799262638360000E-03
   3.871267532380000E-03   3.944503249560000E-03   4.018990829130000E-03
   4.094751669910000E-03   4.171807536530000E-03   4.250180565640000E-03
   4.329893272320000E-03   4.410968556460000E-03   4.493429709440000E-03
   4.577300420750000E-03   4.662604784810000E-03   4.749367307930000E-03
   4.837612915290000E-03   4.927366958150000E-03   5.018655221110000E-03
   5.111503929530000E-03   5.205939757030000E-03   5.301989833210000E-03
   5.399681751390000E-03   5.499043576580000E-03   5.600103853490000E-03
   5.702891614800000E-03   5.807436389440000E-03   5.913768211090000E-03
   6.021917626840000E-03   6.131915705910000E-03   6.243794048630000E-03
   6.357584795480000E-03   6.473320636340000E-03   6.591034819880000E-03
   6.710761163100000E-03   6.832534061070000E-03   6.956388496780000E-03
   7.082360051220000E-03   7.210484913570000E-03   7.340799891630000E-03
   7.473342422370000E-03   7.608150582690000E-03   7.745263100380000E-03
   7.884719365200001E-03   8.026559440240000E-03   8.170824073410000E-03
   8.317554709140000E-03   8.466793500319999E-03   8.618583320350001E-03
   8.772967775510000E-03   8.929991217470000E-03   9.089698756029999E-03
   9.252136272070000E-03   9.417350430750000E-03   9.585388694900001E-03
   9.756299338650000E-03   9.930131461330000E-03   1.010693500160000E-02
   1.028676075150000E-02   1.046966037180000E-02   1.065568640570000E-02
   1.084489229510000E-02   1.103733239510000E-02   1.123306199010000E-02
   1.143213730930000E-02   1.163461554330000E-02   1.184055486010000E-02
   1.205001442210000E-02   1.226305440300000E-02   1.247973600500000E-02
   1.270012147670000E-02   1.292427413040000E-02   1.315225836090000E-02
   1.338413966360000E-02   1.361998465350000E-02   1.385986108450000E-02
   1.410383786820000E-02   1.435198509460000E-02   1.460437405150000E-02
   1.486107724530000E-02   1.512216842200000E-02   1.538772258800000E-02
   1.565781603190000E-02   1.593252634620000E-02   1.621193244990000E-02
   1.649611461110000E-02   1.678515446970000E-02   1.707913506120000E-02
   1.737814084080000E-02   1.768225770680000E-02   1.799157302620000E-02
   1.830617565930000E-02   1.862615598540000E-02   1.895160592850000E-02
   1.928261898430000E-02   1.961929024620000E-02   1.996171643360000E-02
   2.030999591870000E-02   2.066422875550000E-02   2.102451670830000E-02
   2.139096328090000E-02   2.176367374610000E-02   2.214275517670000E-02
   2.252831647520000E-02   2.292046840600000E-02   2.331932362680000E-02
   2.372499672100000E-02   2.413760423050000E-02   2.455726468960000E-02
   2.498409865850000E-02   2.541822875840000E-02   2.585977970650000E-02
   2.630887835190000E-02   2.676565371180000E-02   2.723023700900000E-02
   2.770276170930000E-02   2.818336355990000E-02   2.867218062840000E-02
   2.916935334240000E-02   2.967502453020000E-02   3.018933946120000E-02
   3.071244588810000E-02   3.124449408940000E-02   3.178563691210000E-02
   3.233602981620000E-02   3.289583091880000E-02   3.346520104000000E-02
   3.404430374880000E-02   3.463330541020000E-02   3.523237523300000E-02
   3.584168531830000E-02   3.646141070920000E-02   3.709172944080000E-02
   3.773282259140000E-02   3.838487433460000E-02   3.904807199250000E-02
   3.972260608870000E-02   4.040867040380000E-02   4.110646203100000E-02
   4.181618143220000E-02   4.253803249610000E-02   4.327222259650000E-02
   4.401896265200000E-02   4.477846718660000E-02   4.555095439120000E-02
   4.633664618650000E-02   4.713576828650000E-02   4.794855026360000E-02
   4.877522561420000E-02   4.961603182620000E-02   5.047121044700000E-02
   5.134100715280000E-02   5.222567181940000E-02   5.312545859380000E-02
   5.404062596730000E-02   5.497143684990000E-02   5.591815864550000E-02
   5.688106332890000E-02   5.786042752410000E-02   5.885653258330000E-02
   5.986966466840000E-02   6.090011483250000E-02   6.194817910400000E-02
   6.301415857160000E-02   6.409835947049999E-02   6.520109327060000E-02
   6.632267676600000E-02   6.746343216600000E-02   6.862368718750000E-02
   6.980377514940000E-02   7.100403506800000E-02   7.222481175480000E-02
   7.346645591530000E-02   7.472932424990000E-02   7.601377955620001E-02
   7.732019083340000E-02   7.864893338810000E-02   8.000038894240000E-02
   8.137494574320001E-02   8.277299867420000E-02   8.419494936900000E-02
   8.564120632630000E-02   8.711218502800000E-02   8.860830805760000E-02
   9.013000522240000E-02   9.167771367650000E-02   9.325187804670000E-02
   9.485295055980000E-02   9.648139117310001E-02   9.813766770590000E-02
   9.982225597460000E-02   1.015356399290000E-01   1.032783117900000E-01
   1.050507721950000E-01   1.068535303370000E-01   1.086871041140000E-01
   1.105520202750000E-01   1.124488145750000E-01   1.143780319270000E-01
   1.163402265560000E-01   1.183359621650000E-01   1.203658120880000E-01
   1.224303594630000E-01   1.245301973940000E-01   1.266659291240000E-01
   1.288381682070000E-01   1.310475386860000E-01   1.332946752700000E-01
   1.355802235170000E-01   1.379048400220000E-01   1.402691926020000E-01
   1.426739604890000E-01   1.451198345280000E-01   1.476075173690000E-01
   1.501377236770000E-01   1.527111803310000E-01   1.553286266340000E-01
   1.579908145290000E-01   1.606985088110000E-01   1.634524873480000E-01
   1.662535413040000E-01   1.691024753680000E-01   1.720001079850000E-01
   1.749472715860000E-01   1.779448128370000E-01   1.809935928720000E-01
   1.840944875460000E-01   1.872483876870000E-01   1.904561993500000E-01
   1.937188440760000E-01   1.970372591610000E-01   2.004123979200000E-01
   2.038452299650000E-01   2.073367414840000E-01   2.108879355190000E-01
   2.144998322600000E-01   2.181734693350000E-01   2.219099021090000E-01
   2.257102039870000E-01   2.295754667210000E-01   2.335068007280000E-01
   2.375053354030000E-01   2.415722194470000E-01   2.457086211990000E-01
   2.499157289650000E-01   2.541947513680000E-01   2.585469176860000E-01
   2.629734782140000E-01   2.674757046160000E-01   2.720548902950000E-01
   2.767123507630000E-01   2.814494240170000E-01   2.862674709280000E-01
   2.911678756260000E-01   2.961520459040000E-01   3.012214136160000E-01
   3.063774350950000E-01   3.116215915640000E-01   3.169553895700000E-01
   3.223803614090000E-01   3.278980655710000E-01   3.335100871840000E-01
   3.392180384750000E-01   3.450235592270000E-01   3.509283172540000E-01
   3.569340088790000E-01   3.630423594200000E-01   3.692551236890000E-01
   3.755740864920000E-01   3.820010631460000E-01   3.885378999960000E-01
   3.951864749500000E-01   4.019486980130000E-01   4.088265118420000E-01
   4.158218922990000E-01   4.229368490230000E-01   4.301734260020000E-01
   4.375337021650000E-01   4.450197919770000E-01   4.526338460470000E-01
   4.603780517450000E-01   4.682546338310000E-01   4.762658550950000E-01
   4.844140170070000E-01   4.927014603740000E-01   5.011305660199999E-01
   5.097037554630000E-01   5.184234916150000E-01   5.272922794860000E-01
   5.363126669090000E-01   5.454872452670000E-01   5.548186502370001E-01
   5.643095625510000E-01   5.739627087670000E-01   5.837808620440000E-01
   5.937668429500000E-01   6.039235202630000E-01   6.142538117990000E-01
   6.247606852530000E-01   6.354471590440000E-01   6.463163031910000E-01
   6.573712401870000E-01   6.686151459040000E-01   6.800512504960000E-01
   6.916828393360001E-01   7.035132539540000E-01   7.155458929990000E-01
   7.277842132160000E-01   7.402317304370000E-01   7.528920205930000E-01
   7.657687207400000E-01   7.788655301060000E-01   7.921862111490000E-01
   8.057345906440000E-01   8.195145607790000E-01   8.335300802710000E-01
   8.477851755090000E-01   8.622839417050000E-01   8.770305440750000E-01
   8.920292190320001E-01   9.072842754050000E-01   9.228000956760000E-01
   9.385811372410000E-01   9.546319336869999E-01   9.709570960970000E-01
   9.875613143760000E-01   1.004449358590000E+00   1.021626080360000E+00
   1.039096414210000E+00   1.056865379030000E+00   1.074938079510000E+00
   1.093319707580000E+00   1.112015543940000E+00   1.131030959520000E+00
   1.150371417090000E+00   1.170042472790000E+00   1.190049777740000E+00
   1.210399079640000E+00   1.231096224460000E+00   1.252147158080000E+00
   1.273557928040000E+00   1.295334685230000E+00   1.317483685680000E+00
   1.340011292390000E+00   1.362923977100000E+00   1.386228322180000E+00
   1.409931022510000E+00   1.434038887420000E+00   1.458558842640000E+00
   1.483497932270000E+00   1.508863320830000E+00   1.534662295310000E+00
   1.560902267260000E+00   1.587590774900000E+00   1.614735485340000E+00
   1.642344196710000E+00   1.670424840480000E+00   1.698985483660000E+00
   1.728034331180000E+00   1.757579728200000E+00   1.787630162560000E+00
   1.818194267150000E+00   1.849280822450000E+00   1.880898759030000E+00
   1.913057160110000E+00   1.945765264170000E+00   1.979032467630000E+00
   2.012868327500000E+00   2.047282564170000E+00   2.082285064190000E+00
   2.117885883100000E+00   2.154095248330000E+00   2.190923562110000E+00
   2.228381404530000E+00   2.266479536480000E+00   2.305228902830000E+00
   2.344640635510000E+00   2.384726056770000E+00   2.425496682350000E+00
   2.466964224880000E+00   2.509140597180000E+00   2.552037915700000E+00
   2.595668504010000E+00   2.640044896340000E+00   2.685179841160000E+00
   2.731086304870000E+00   2.777777475520000E+00   2.825266766560000E+00
   2.873567820750000E+00   2.922694514060000E+00   2.972660959630000E+00
   3.023481511850000E+00   3.075170770480000E+00   3.127743584850000E+00
   3.181215058120000E+00   3.235600551590000E+00   3.290915689170000E+00
   3.347176361840000E+00   3.404398732180000E+00   3.462599239080000E+00
   3.521794602420000E+00   3.582001827890000E+00   3.643238211850000E+00
   3.705521346330000E+00   3.768869124070000E+00   3.833299743660000E+00
   3.898831714780000E+00   3.965483863480000E+00   4.033275337640000E+00
   4.102225612450000E+00   4.172354495970000E+00   4.243682134890000E+00
   4.316229020250000E+00   4.390015993360000E+00   4.465064251800000E+00
   4.541395355490000E+00   4.619031232860000E+00   4.697994187200000E+00
   4.778306903050000E+00   4.859992452690000E+00   4.943074302800000E+00
   5.027576321180000E+00   5.113522783640000E+00   5.200938380930000E+00
   5.289848225850000E+00   5.380277860490000E+00   5.472253263530000E+00
   5.565800857720000E+00   5.660947517470000E+00   5.757720576590000E+00
   5.856147836100000E+00   5.956257572240000E+00   6.058078544600000E+00
   6.161640004390000E+00   6.266971702800000E+00   6.374103899590000E+00
   6.483067371760000E+00   6.593893422430000E+00   6.706613889760000E+00
   6.821261156170000E+00   6.937868157590000E+00   7.056468392960000E+00
   7.177095933840000E+00   7.299785434170000E+00   7.424572140290000E+00
   7.551491901000000E+00   7.680581177880000E+00   7.811877055800000E+00
   7.945417253510000E+00   8.081240134530001E+00   8.219384718140001E+00
   8.359890690609999E+00   8.502798416590000E+00   8.648148950710000E+00
   8.795984049350000E+00   8.946346182679999E+00   9.099278546830000E+00
   9.254825076310000E+00   9.413030456630000E+00   9.573940137139999E+00
   9.737600344060001E+00   9.904058093820000E+00   1.007336120650000E+01
   1.024555831960000E+01   1.042069890200000E+01   1.059883326830000E+01
   1.078001259290000E+01   1.096428892530000E+01   1.115171520440000E+01
   1.134234527410000E+01   1.153623389880000E+01   1.173343677900000E+01
   1.193401056720000E+01   1.213801288440000E+01   1.234550233650000E+01
   1.255653853120000E+01   1.277118209510000E+01   1.298949469120000E+01
   1.321153903640000E+01   1.343737891980000E+01   1.366707922090000E+01
   1.390070592800000E+01   1.413832615760000E+01   1.438000817340000E+01
   1.462582140600000E+01   1.487583647280000E+01   1.513012519820000E+01
   1.538876063440000E+01   1.565181708250000E+01   1.591937011340000E+01
   1.619149659000000E+01   1.646827468900000E+01   1.674978392320000E+01
   1.703610516500000E+01   1.732732066880000E+01   1.762351409510000E+01
   1.792477053480000E+01   1.823117653280000E+01   1.854282011380000E+01
   1.885979080680000E+01   1.918217967150000E+01   1.951007932390000E+01
   1.984358396320000E+01   2.018278939880000E+01   2.052779307800000E+01
   2.087869411370000E+01   2.123559331270000E+01   2.159859320550000E+01
   2.196779807490000E+01   2.234331398620000E+01   2.272524881800000E+01
   2.311371229270000E+01   2.350881600830000E+01   2.391067347060000E+01
   2.431940012530000E+01   2.473511339170000E+01   2.515793269630000E+01
   2.558797950680000E+01   2.602537736730000E+01   2.647025193390000E+01
   2.692273101020000E+01   2.738294458490000E+01   2.785102486840000E+01
   2.832710633110000E+01   2.881132574190000E+01   2.930382220780000E+01
   2.980473721340000E+01   3.031421466200000E+01   3.083240091650000E+01
   3.135944484180000E+01   3.189549784760000E+01   3.244071393130000E+01
   3.299524972300000E+01   3.355926453020000E+01   3.413292038340000E+01
   3.471638208280000E+01   3.530981724560000E+01   3.591339635440000E+01
   3.652729280570000E+01   3.715168296000000E+01   3.778674619260000E+01
   3.843266494490000E+01   3.908962477680000E+01   3.975781442010000E+01
   4.043742583290000E+01   4.112865425430000E+01   4.183169826080000E+01
   4.254675982350000E+01   4.327404436570000E+01   4.401376082210000E+01
   4.476612169890000E+01   4.553134313500000E+01   4.630964496350000E+01
   4.710125077560000E+01   4.790638798420000E+01   4.872528788980000E+01
   4.955818574640000E+01   5.040532082950000E+01   5.126693650450000E+01
   5.214328029700000E+01   5.303460396360000E+01   5.394116356440000E+01
   5.486321953630000E+01   5.580103676820000E+01   5.675488467690000E+01
   5.772503728440000E+01   5.871177329670000E+01   5.971537618410000E+01
   6.073613426210000E+01   6.177434077500000E+01   6.283029397920000E+01
   6.390429722980000E+01   6.499665906700000E+01   6.610769330540001E+01
   6.723771912340000E+01   6.838706115580000E+01   6.955604958610000E+01
   7.074502024220000E+01   7.195431469240000E+01   7.318428034340000E+01
   7.443527054070000E+01   7.570764466950000E+01   7.700176825830000E+01
   7.831801308380000E+01   7.965675727759999E+01   8.101838543500000E+01
   8.240328872550000E+01
    </PP_R>
    <PP_RAB>
   7.002124792840000E-06   7.121816343920000E-06   7.243553855010000E-06
   7.367372298960000E-06   7.493307246410000E-06   7.621394876020000E-06
   7.751671984910000E-06   7.884175999150000E-06   8.018944984589999E-06
   8.156017657760001E-06   8.295433396970001E-06   8.437232253670000E-06
   8.581454963930001E-06   8.728142960140000E-06   8.877338382930000E-06
   9.029084093250000E-06   9.183423684720000E-06   9.340401496100000E-06
   9.500062624080000E-06   9.662452936220000E-06   9.827619084120000E-06
   9.995608516800000E-06   1.016646949440000E-05   1.034025110190000E-05
   1.051700326350000E-05   1.069677675660000E-05   1.087962322670000E-05
   1.106559520200000E-05   1.125474610870000E-05   1.144713028620000E-05
   1.164280300270000E-05   1.184182047110000E-05   1.204423986550000E-05
   1.225011933690000E-05   1.245951803050000E-05   1.267249610260000E-05
   1.288911473750000E-05   1.310943616570000E-05   1.333352368130000E-05
   1.356144166020000E-05   1.379325557880000E-05   1.402903203290000E-05
   1.426883875640000E-05   1.451274464110000E-05   1.476081975660000E-05
   1.501313536990000E-05   1.526976396650000E-05   1.553077927090000E-05
   1.579625626750000E-05   1.606627122300000E-05   1.634090170720000E-05
   1.662022661630000E-05   1.690432619490000E-05   1.719328205930000E-05
   1.748717722090000E-05   1.778609611020000E-05   1.809012460070000E-05
   1.839935003390000E-05   1.871386124430000E-05   1.903374858500000E-05
   1.935910395330000E-05   1.969002081750000E-05   2.002659424380000E-05
   2.036892092300000E-05   2.071709919900000E-05   2.107122909670000E-05
   2.143141235090000E-05   2.179775243500000E-05   2.217035459170000E-05
   2.254932586220000E-05   2.293477511760000E-05   2.332681309020000E-05
   2.372555240470000E-05   2.413110761140000E-05   2.454359521830000E-05
   2.496313372520000E-05   2.538984365730000E-05   2.582384760030000E-05
   2.626527023490000E-05   2.671423837340000E-05   2.717088099560000E-05
   2.763532928620000E-05   2.810771667210000E-05   2.858817886110000E-05
   2.907685388070000E-05   2.957388211770000E-05   3.007940635880000E-05
   3.059357183130000E-05   3.111652624490000E-05   3.164841983440000E-05
   3.218940540250000E-05   3.273963836390000E-05   3.329927678990000E-05
   3.386848145370000E-05   3.444741587680000E-05   3.503624637590000E-05
   3.563514211070000E-05   3.624427513220000E-05   3.686382043260000E-05
   3.749395599520000E-05   3.813486284590000E-05   3.878672510470000E-05
   3.944973003910000E-05   4.012406811750000E-05   4.080993306430000E-05
   4.150752191510000E-05   4.221703507380000E-05   4.293867636970000E-05
   4.367265311650000E-05   4.441917617130000E-05   4.517845999600000E-05
   4.595072271800000E-05   4.673618619340000E-05   4.753507607070000E-05
   4.834762185550000E-05   4.917405697650000E-05   5.001461885260000E-05
   5.086954896080000E-05   5.173909290600000E-05   5.262350049150000E-05
   5.352302579030000E-05   5.443792721870000E-05   5.536846761020000E-05
   5.631491429100000E-05   5.727753915700000E-05   5.825661875160000E-05
   5.925243434540000E-05   6.026527201700000E-05   6.129542273510001E-05
   6.234318244210000E-05   6.340885213890000E-05   6.449273797200000E-05
   6.559515132070000E-05   6.671640888700000E-05   6.785683278660000E-05
   6.901675064120000E-05   7.019649567270000E-05   7.139640679900000E-05
   7.261682873149999E-05   7.385811207360000E-05   7.512061342209999E-05
   7.640469546920001E-05   7.771072710679999E-05   7.903908353260000E-05
   8.039014635760000E-05   8.176430371599999E-05   8.316195037659999E-05
   8.458348785629999E-05   8.602932453540000E-05   8.749987577460000E-05
   8.899556403500000E-05   9.051681899869999E-05   9.206407769300000E-05
   9.363778461530000E-05   9.523839186119999E-05   9.686635925400001E-05
   9.852215447750000E-05   1.002062532090000E-04   1.019191392590000E-04
   1.036613047050000E-04   1.054332500380000E-04   1.072354843030000E-04
   1.090685252480000E-04   1.109328994690000E-04   1.128291425660000E-04
   1.147577992930000E-04   1.167194237140000E-04   1.187145793670000E-04
   1.207438394220000E-04   1.228077868450000E-04   1.249070145690000E-04
   1.270421256610000E-04   1.292137334970000E-04   1.314224619390000E-04
   1.336689455110000E-04   1.359538295840000E-04   1.382777705620000E-04
   1.406414360670000E-04   1.430455051360000E-04   1.454906684100000E-04
   1.479776283380000E-04   1.505070993750000E-04   1.530798081890000E-04
   1.556964938690000E-04   1.583579081400000E-04   1.610648155730000E-04
   1.638179938110000E-04   1.666182337890000E-04   1.694663399610000E-04
   1.723631305330000E-04   1.753094376970000E-04   1.783061078700000E-04
   1.813540019380000E-04   1.844539955010000E-04   1.876069791270000E-04
   1.908138586090000E-04   1.940755552190000E-04   1.973930059810000E-04
   2.007671639340000E-04   2.041989984080000E-04   2.076894953030000E-04
   2.112396573710000E-04   2.148505045050000E-04   2.185230740310000E-04
   2.222584210080000E-04   2.260576185280000E-04   2.299217580280000E-04
   2.338519495990000E-04   2.378493223110000E-04   2.419150245300000E-04
   2.460502242540000E-04   2.502561094470000E-04   2.545338883770000E-04
   2.588847899680000E-04   2.633100641490000E-04   2.678109822170000E-04
   2.723888371970000E-04   2.770449442190000E-04   2.817806408930000E-04
   2.865972876920000E-04   2.914962683460000E-04   2.964789902380000E-04
   3.015468848060000E-04   3.067014079580000E-04   3.119440404910000E-04
   3.172762885100000E-04   3.226996838670000E-04   3.282157845980000E-04
   3.338261753740000E-04   3.395324679490000E-04   3.453363016330000E-04
   3.512393437530000E-04   3.572432901400000E-04   3.633498656120000E-04
   3.695608244680000E-04   3.758779509980000E-04   3.823030599900000E-04
   3.888379972540000E-04   3.954846401490000E-04   4.022448981290000E-04
   4.091207132840000E-04   4.161140609030000E-04   4.232269500400000E-04
   4.304614240890000E-04   4.378195613760000E-04   4.453034757510000E-04
   4.529153171980000E-04   4.606572724500000E-04   4.685315656230000E-04
   4.765404588490000E-04   4.846862529260000E-04   4.929712879850000E-04
   5.013979441560000E-04   5.099686422539999E-04   5.186858444740000E-04
   5.275520551000000E-04   5.365698212230000E-04   5.457417334730000E-04
   5.550704267620000E-04   5.645585810440000E-04   5.742089220810000E-04
   5.840242222300000E-04   5.940073012370000E-04   6.041610270470000E-04
   6.144883166290000E-04   6.249921368140000E-04   6.356755051450000E-04
   6.465414907480000E-04   6.575932152100000E-04   6.688338534780001E-04
   6.802666347700000E-04   6.918948435020000E-04   7.037218202340000E-04
   7.157509626270001E-04   7.279857264220000E-04   7.404296264280000E-04
   7.530862375380000E-04   7.659591957510000E-04   7.790521992200000E-04
   7.923690093100001E-04   8.059134516830000E-04   8.196894173960000E-04
   8.337008640160000E-04   8.479518167620000E-04   8.624463696570000E-04
   8.771886867040000E-04   8.921830030870000E-04   9.074336263820000E-04
   9.229449377990000E-04   9.387213934360000E-04   9.547675255640000E-04
   9.710879439270000E-04   9.876873370649999E-04   1.004570473660000E-03
   1.021742203920000E-03   1.039207460940000E-03   1.056971262150000E-03
   1.075038710750000E-03   1.093414997170000E-03   1.112105400570000E-03
   1.131115290320000E-03   1.150450127610000E-03   1.170115466950000E-03
   1.190116957830000E-03   1.210460346280000E-03   1.231151476570000E-03
   1.252196292850000E-03   1.273600840890000E-03   1.295371269810000E-03
   1.317513833830000E-03   1.340034894080000E-03   1.362940920430000E-03
   1.386238493320000E-03   1.409934305710000E-03   1.434035164940000E-03
   1.458547994730000E-03   1.483479837130000E-03   1.508837854580000E-03
   1.534629331950000E-03   1.560861678630000E-03   1.587542430670000E-03
   1.614679252930000E-03   1.642279941290000E-03   1.670352424890000E-03
   1.698904768430000E-03   1.727945174430000E-03   1.757481985650000E-03
   1.787523687420000E-03   1.818078910170000E-03   1.849156431800000E-03
   1.880765180300000E-03   1.912914236230000E-03   1.945612835410000E-03
   1.978870371510000E-03   2.012696398770000E-03   2.047100634760000E-03
   2.082092963150000E-03   2.117683436560000E-03   2.153882279440000E-03
   2.190699891020000E-03   2.228146848290000E-03   2.266233909030000E-03
   2.304972014910000E-03   2.344372294660000E-03   2.384446067200000E-03
   2.425204844950000E-03   2.466660337130000E-03   2.508824453090000E-03
   2.551709305760000E-03   2.595327215140000E-03   2.639690711810000E-03
   2.684812540540000E-03   2.730705663960000E-03   2.777383266280000E-03
   2.824858757060000E-03   2.873145775100000E-03   2.922258192330000E-03
   2.972210117780000E-03   3.023015901690000E-03   3.074690139570000E-03
   3.127247676420000E-03   3.180703611020000E-03   3.235073300220000E-03
   3.290372363370000E-03   3.346616686840000E-03   3.403822428520000E-03
   3.462006022510000E-03   3.521184183840000E-03   3.581373913250000E-03
   3.642592502090000E-03   3.704857537260000E-03   3.768186906310000E-03
   3.832598802540000E-03   3.898111730240000E-03   3.964744510010000E-03
   4.032516284160000E-03   4.101446522200000E-03   4.171555026460000E-03
   4.242861937760000E-03   4.315387741190000E-03   4.389153272020000E-03
   4.464179721640000E-03   4.540488643710000E-03   4.618101960310000E-03
   4.697041968230000E-03   4.777331345420000E-03   4.858993157470000E-03
   4.942050864220000E-03   5.026528326550000E-03   5.112449813200000E-03
   5.199840007750000E-03   5.288724015720000E-03   5.379127371750000E-03
   5.471076046990000E-03   5.564596456500000E-03   5.659715466900000E-03
   5.756460404030000E-03   5.854859060840000E-03   5.954939705370000E-03
   6.056731088840000E-03   6.160262453940000E-03   6.265563543250000E-03
   6.372664607710000E-03   6.481596415410000E-03   6.592390260320000E-03
   6.705077971390000E-03   6.819691921620000E-03   6.936265037360000E-03
   7.054830807830000E-03   7.175423294670000E-03   7.298077141780000E-03
   7.422827585220000E-03   7.549710463390000E-03   7.678762227290000E-03
   7.810019950980000E-03   7.943521342270001E-03   8.079304753530000E-03
   8.217409192700000E-03   8.357874334520000E-03   8.500740531910000E-03
   8.646048827550001E-03   8.793840965719999E-03   8.944159404220000E-03
   9.097047326649999E-03   9.252548654730000E-03   9.410708061009999E-03
   9.571570981600001E-03   9.735183629310000E-03   9.901593006900000E-03
   1.007084692060000E-02   1.024299399370000E-02   1.041808368070000E-02
   1.059616628160000E-02   1.077729295600000E-02   1.096151573820000E-02
   1.114888755170000E-02   1.133946222490000E-02   1.153329450610000E-02
   1.173044007960000E-02   1.193095558160000E-02   1.213489861630000E-02
   1.234232777250000E-02   1.255330264070000E-02   1.276788382980000E-02
   1.298613298480000E-02   1.320811280450000E-02   1.343388705950000E-02
   1.366352061030000E-02   1.389707942610000E-02   1.413463060400000E-02
   1.437624238770000E-02   1.462198418760000E-02   1.487192660060000E-02
   1.512614143040000E-02   1.538470170790000E-02   1.564768171250000E-02