<UPF version="2.0.1">
  <PP_INFO>
    Generated by new atomic code, or converted to UPF format
    Author: 
    Generation date: 
    Pseudopotential type: US
    Element: Ca
    Functional: SLA  PZ   NOGX NOGC
    Suggested minimum cutoff for wavefunctions:   0. Ry
    Suggested minimum cutoff for charge density:   0. Ry
    The Pseudo was generated with a Non-Relativistic Calculation
    L component and cutoff radius for Local Potential:  0   0.0000
    Valence configuration: 
    nl pn  l   occ       Rcut    Rcut US       E pseu
    3S  1  0  2.00      0.000      0.000     0.000000
    3P  2  1  6.00      0.000      0.000     0.000000
    4S  1  0  2.00      0.000      0.000     0.000000
    3D  3  2  0.00      0.000      0.000     0.000000
    Generation configuration: not available.
  </PP_INFO>
    <!-- END OF HUMAN READABLE SECTION -->
  <PP_HEADER generated="Generated by new atomic code, or converted to UPF format" author="" date="" comment="" element="Ca" pseudo_type="US" relativistic="no" is_ultrasoft="true" is_paw="false" is_coulomb="false" has_so="false" has_wfc="false" has_gipaw="false" paw_as_gipaw="false" core_correction="true" functional="SLA  PZ   NOGX NOGC" z_valence="10.000000000000000" total_psenergy="-74.746169969999997" wfc_cutoff="0.0000000000000000" rho_cutoff="0.0000000000000000" l_max="2" l_max_rho="0" l_local="0" mesh_size="845" number_of_wfc="4" number_of_proj="6"/>
  <PP_MESH>
    <PP_R>
   0.000000000000000E+00   2.118540454000000E-06   4.273294400390000E-06
   6.464880858300000E-06   8.693929428090000E-06   1.096108047230000E-05
   1.326698529950000E-05   1.561230635160000E-05   1.799771739400000E-05
   2.042390370900000E-05   2.289156229300000E-05   2.540140205660000E-05
   2.795414402820000E-05   3.055052156120000E-05   3.319128054460000E-05
   3.587717961730000E-05   3.860899038620000E-05   4.138749764760000E-05
   4.421349961290000E-05   4.708780813780000E-05   5.001124895560000E-05
   5.298466191410000E-05   5.600890121740000E-05   5.908483567090000E-05
   6.221334893110001E-05   6.539533975930001E-05   6.863172227980000E-05
   7.192342624280000E-05   7.527139729120000E-05   7.867659723210000E-05
   8.214000431360000E-05   8.566261350559999E-05   8.924543678560000E-05
   9.288950342929999E-05   9.659586030660000E-05   1.003655721820000E-04
   1.041997220210000E-04   1.080994113000000E-04   1.120657603260000E-04
   1.160999085520000E-04   1.202030149120000E-04   1.243762581490000E-04
   1.286208371550000E-04   1.329379713150000E-04   1.373289008580000E-04
   1.417948872150000E-04   1.463372133750000E-04   1.509571842610000E-04
   1.556561271020000E-04   1.604353918130000E-04   1.652963513840000E-04
   1.702404022750000E-04   1.752689648160000E-04   1.803834836160000E-04
   1.855854279770000E-04   1.908762923170000E-04   1.962575965980000E-04
   2.017308867660000E-04   2.072977351910000E-04   2.129597411210000E-04
   2.187185311400000E-04   2.245757596370000E-04   2.305331092810000E-04
   2.365922915030000E-04   2.427550469890000E-04   2.490231461790000E-04
   2.553983897770000E-04   2.618826092670000E-04   2.684776674390000E-04
   2.751854589270000E-04   2.820079107490000E-04   2.889469828630000E-04
   2.960046687310000E-04   3.031829958890000E-04   3.104840265310000E-04
   3.179098581030000E-04   3.254626239020000E-04   3.331444936910000E-04
   3.409576743240000E-04   3.489044103750000E-04   3.569869847890000E-04
   3.652077195320000E-04   3.735689762630000E-04   3.820731570080000E-04
   3.907227048540000E-04   3.995201046500000E-04   4.084678837170000E-04
   4.175686125800000E-04   4.268249057020000E-04   4.362394222360000E-04
   4.458148667920000E-04   4.555539902080000E-04   4.654595903470000E-04
   4.755345128970000E-04   4.857816521860000E-04   4.962039520210000E-04
   5.068044065260000E-04   5.175860610059999E-04   5.285520128230000E-04
   5.397054122820000E-04   5.510494635390000E-04   5.625874255200000E-04
   5.743226128580000E-04   5.862583968470000E-04   5.983982064050000E-04
   6.107455290640000E-04   6.233039119730000E-04   6.360769629110000E-04
   6.490683513280000E-04   6.622818094000000E-04   6.757211330960000E-04
   6.893901832740000E-04   7.032928867890000E-04   7.174332376180000E-04
   7.318152980090000E-04   7.464431996510000E-04   7.613211448570000E-04
   7.764534077720000E-04   7.918443356030000E-04   8.074983498660000E-04
   8.234199476550000E-04   8.396137029380000E-04   8.560842678680000E-04
   8.728363741180000E-04   8.898748342450000E-04   9.072045430690000E-04
   9.248304790800000E-04   9.427577058680000E-04   9.609913735780000E-04
   9.795367203909999E-04   9.983990740260000E-04   1.017583853270000E-03
   1.037096569540000E-03   1.056942828470000E-03   1.077128331490000E-03
   1.097658877520000E-03   1.118540364570000E-03   1.139778791510000E-03
   1.161380259710000E-03   1.183350974870000E-03   1.205697248740000E-03
   1.228425500970000E-03   1.251542260960000E-03   1.275054169690000E-03
   1.298967981700000E-03   1.323290566940000E-03   1.348028912830000E-03
   1.373190126220000E-03   1.398781435440000E-03   1.424810192380000E-03
   1.451283874590000E-03   1.478210087440000E-03   1.505596566330000E-03
   1.533451178860000E-03   1.561781927110000E-03   1.590596949960000E-03
   1.619904525420000E-03   1.649713072970000E-03   1.680031156050000E-03
   1.710867484440000E-03   1.742230916830000E-03   1.774130463330000E-03
   1.806575288050000E-03   1.839574711770000E-03   1.873138214590000E-03
   1.907275438640000E-03   1.941996190900000E-03   1.977310445960000E-03
   2.013228348930000E-03   2.049760218320000E-03   2.086916549030000E-03
   2.124708015360000E-03   2.163145474070000E-03   2.202239967490000E-03
   2.242002726710000E-03   2.282445174810000E-03   2.323578930110000E-03
   2.365415809560000E-03   2.407967832070000E-03   2.451247222020000E-03
   2.495266412740000E-03   2.540038050100000E-03   2.585574996100000E-03
   2.631890332650000E-03   2.678997365240000E-03   2.726909626810000E-03
   2.775640881620000E-03   2.825205129230000E-03   2.875616608470000E-03
   2.926889801590000E-03   2.979039438400000E-03   3.032080500470000E-03
   3.086028225460000E-03   3.140898111530000E-03   3.196705921720000E-03
   3.253467688540000E-03   3.311199718540000E-03   3.369918597030000E-03
   3.429641192800000E-03   3.490384662990000E-03   3.552166458030000E-03
   3.615004326630000E-03   3.678916320900000E-03   3.743920801510000E-03
   3.810036443000000E-03   3.877282239110000E-03   3.945677508260000E-03
   4.015241899070000E-03   4.085995396060000E-03   4.157958325340000E-03
   4.231151360470000E-03   4.305595528380000E-03   4.381312215440000E-03
   4.458323173600000E-03   4.536650526610000E-03   4.616316776400000E-03
   4.697344809560000E-03   4.779757903850000E-03   4.863579734980000E-03
   4.948834383320000E-03   5.035546340900000E-03   5.123740518370000E-03
   5.213442252230000E-03   5.304677312030000E-03   5.397471907860000E-03
   5.491852697790000E-03   5.587846795610000E-03   5.685481778560000E-03
   5.784785695280000E-03   5.885787073870000E-03   5.988514930070000E-03
   6.092998775600000E-03   6.199268626650000E-03   6.307355012490000E-03
   6.417288984260000E-03   6.529102123840000E-03   6.642826553000000E-03
   6.758494942560000E-03   6.876140521810000E-03   6.995797088050000E-03
   7.117499016290000E-03   7.241281269150000E-03   7.367179406870000E-03
   7.495229597550000E-03   7.625468627530000E-03   7.757933911960000E-03
   7.892663505560000E-03   8.029696113540000E-03   8.169071102700000E-03
   8.310828512790001E-03   8.455009067960000E-03   8.601654188510000E-03
   8.750806002730000E-03   8.902507359059999E-03   9.056801838350000E-03
   9.213733766440000E-03   9.373348226820000E-03   9.535691073639999E-03
   9.700808944859999E-03   9.868749275640000E-03   1.003956031200000E-02
   1.021329112460000E-02   1.038999162310000E-02   1.056971256990000E-02
   1.075250559550000E-02   1.093842321280000E-02   1.112751883220000E-02
   1.131984677740000E-02   1.151546230040000E-02   1.171442159770000E-02
   1.191678182660000E-02   1.212260112120000E-02   1.233193860930000E-02
   1.254485442970000E-02   1.276140974880000E-02   1.298166677890000E-02
   1.320568879560000E-02   1.343354015600000E-02   1.366528631740000E-02
   1.390099385590000E-02   1.414073048600000E-02   1.438456507910000E-02
   1.463256768430000E-02   1.488480954790000E-02   1.514136313410000E-02
   1.540230214580000E-02   1.566770154580000E-02   1.593763757810000E-02
   1.621218779020000E-02   1.649143105500000E-02   1.677544759370000E-02
   1.706431899870000E-02   1.735812825720000E-02   1.765695977500000E-02
   1.796089940050000E-02   1.827003444970000E-02   1.858445373120000E-02
   1.890424757150000E-02   1.922950784110000E-02   1.956032798120000E-02
   1.989680302980000E-02   2.023902964980000E-02   2.058710615630000E-02
   2.094113254480000E-02   2.130121052040000E-02   2.166744352640000E-02
   2.203993677460000E-02   2.241879727500000E-02   2.280413386690000E-02
   2.319605725000000E-02   2.359468001640000E-02   2.400011668270000E-02
   2.441248372300000E-02   2.483189960230000E-02   2.525848481070000E-02
   2.569236189790000E-02   2.613365550840000E-02   2.658249241730000E-02
   2.703900156670000E-02   2.750331410300000E-02   2.797556341400000E-02
   2.845588516790000E-02   2.894441735190000E-02   2.944130031180000E-02
   2.994667679240000E-02   3.046069197860000E-02   3.098349353710000E-02
   3.151523165860000E-02   3.205605910120000E-02   3.260613123410000E-02
   3.316560608240000E-02   3.373464437250000E-02   3.431340957800000E-02
   3.490206796690000E-02   3.550078864940000E-02   3.610974362650000E-02
   3.672910783900000E-02   3.735905921830000E-02   3.799977873730000E-02
   3.865145046220000E-02   3.931426160580000E-02   3.998840258090000E-02
   4.067406705510000E-02   4.137145200660000E-02   4.208075778060000E-02
   4.280218814680000E-02   4.353595035830000E-02   4.428225521080000E-02
   4.504131710320000E-02   4.581335409920000E-02   4.659858799030000E-02
   4.739724435880000E-02   4.820955264330000E-02   4.903574620430000E-02
   4.987606239120000E-02   5.073074261050000E-02   5.160003239540000E-02
   5.248418147590000E-02   5.338344385110000E-02   5.429807786150000E-02
   5.522834626380000E-02   5.617451630620000E-02   5.713685980500000E-02
   5.811565322290000E-02   5.911117774820000E-02   6.012371937590000E-02
   6.115356898960000E-02   6.220102244520000E-02   6.326638065570001E-02
   6.434994967810000E-02   6.545204080060001E-02   6.657297063280000E-02
   6.771306119610000E-02   6.887264001640001E-02   7.005204021840000E-02
   7.125160062080001E-02   7.247166583410000E-02   7.371258635960000E-02
   7.497471868960000E-02   7.625842541029999E-02   7.756407530580001E-02
   7.889204346420001E-02   8.024271138480001E-02   8.161646708860000E-02
   8.301370522890000E-02   8.443482720520000E-02   8.588024127830000E-02
   8.735036268780000E-02   8.884561377109999E-02   9.036642408480000E-02
   9.191323052840000E-02   9.348647746930000E-02   9.508661687110000E-02
   9.671410842280000E-02   9.836941967120000E-02   1.000530261550000E-01
   1.017654115430000E-01   1.035070677680000E-01   1.052784951760000E-01
   1.070802026640000E-01   1.089127078260000E-01   1.107765371070000E-01
   1.126722259480000E-01   1.146003189440000E-01   1.165613699990000E-01
   1.185559424850000E-01   1.205846094040000E-01   1.226479535520000E-01
   1.247465676900000E-01   1.268810547070000E-01   1.290520278010000E-01
   1.312601106500000E-01   1.335059375930000E-01   1.357901538140000E-01
   1.381134155230000E-01   1.404763901490000E-01   1.428797565290000E-01
   1.453242051020000E-01   1.478104381120000E-01   1.503391698060000E-01
   1.529111266390000E-01   1.555270474840000E-01   1.581876838460000E-01
   1.608938000730000E-01   1.636461735800000E-01   1.664455950710000E-01
   1.692928687650000E-01   1.721888126300000E-01   1.751342586130000E-01
   1.781300528850000E-01   1.811770560790000E-01   1.842761435400000E-01
   1.874282055760000E-01   1.906341477130000E-01   1.938948909570000E-01
   1.972113720560000E-01   2.005845437710000E-01   2.040153751490000E-01
   2.075048518010000E-01   2.110539761860000E-01   2.146637679000000E-01
   2.183352639650000E-01   2.220695191310000E-01   2.258676061780000E-01
   2.297306162220000E-01   2.336596590320000E-01   2.376558633450000E-01
   2.417203771930000E-01   2.458543682340000E-01   2.500590240810000E-01
   2.543355526530000E-01   2.586851825120000E-01   2.631091632230000E-01
   2.676087657100000E-01   2.721852826210000E-01   2.768400287030000E-01
   2.815743411720000E-01   2.863895801060000E-01   2.912871288290000E-01
   2.962683943130000E-01   3.013348075780000E-01   3.064878241070000E-01
   3.117289242620000E-01   3.170596137090000E-01   3.224814238540000E-01
   3.279959122750000E-01   3.336046631810000E-01   3.393092878550000E-01
   3.451114251270000E-01   3.510127418370000E-01   3.570149333210000E-01
   3.631197238920000E-01   3.693288673380000E-01   3.756441474250000E-01
   3.820673784120000E-01   3.886004055680000E-01   3.952451057050000E-01
   4.020033877180000E-01   4.088771931300000E-01   4.158684966530000E-01
   4.229793067520000E-01   4.302116662260000E-01   4.375676527910000E-01
   4.450493796800000E-01   4.526589962500000E-01   4.603986885940000E-01
   4.682706801770000E-01   4.762772324700000E-01   4.844206456010000E-01
   4.927032590140000E-01   5.011274521440000E-01   5.096956450980000E-01
   5.184102993540000E-01   5.272739184610000E-01   5.362890487670000E-01
   5.454582801440000E-01   5.547842467340000E-01   5.642696277080000E-01
   5.739171480320000E-01   5.837295792520000E-01   5.937097402890000E-01
   6.038604982500000E-01   6.141847692520001E-01   6.246855192580000E-01
   6.353657649310001E-01   6.462285744980000E-01   6.572770686340000E-01
   6.685144213580000E-01   6.799438609439999E-01   6.915686708480000E-01
   7.033921906540000E-01   7.154178170300000E-01   7.276490047060000E-01
   7.400892674650000E-01   7.527421791540000E-01   7.656113747100000E-01
   7.787005512030000E-01   7.920134689020000E-01   8.055539523480000E-01
   8.193258914620000E-01   8.333332426550000E-01   8.475800299670000E-01
   8.620703462260000E-01   8.768083542180000E-01   8.917982878880000E-01
   9.070444535540000E-01   9.225512311440000E-01   9.383230754560000E-01
   9.543645174349999E-01   9.706801654770000E-01   9.872747067520000E-01
   1.004152908550000E+00   1.021319619650000E+00   1.038779771720000E+00
   1.056538380730000E+00   1.074600548370000E+00   1.092971463550000E+00
   1.111656403900000E+00   1.130660737220000E+00   1.149989923100000E+00
   1.169649514430000E+00   1.189645159040000E+00   1.209982601290000E+00
   1.230667683730000E+00   1.251706348790000E+00   1.273104640470000E+00
   1.294868706070000E+00   1.317004798010000E+00   1.339519275540000E+00
   1.362418606650000E+00   1.385709369860000E+00   1.409398256160000E+00
   1.433492070910000E+00   1.457997735810000E+00   1.482922290840000E+00
   1.508272896350000E+00   1.534056835090000E+00   1.560281514280000E+00
   1.586954467760000E+00   1.614083358150000E+00   1.641675979060000E+00
   1.669740257320000E+00   1.698284255240000E+00   1.727316172980000E+00
   1.756844350830000E+00   1.786877271670000E+00   1.817423563380000E+00
   1.848492001320000E+00   1.880091510840000E+00   1.912231169880000E+00
   1.944920211530000E+00   1.978168026730000E+00   2.011984166930000E+00
   2.046378346850000E+00   2.081360447280000E+00   2.116940517890000E+00
   2.153128780150000E+00   2.189935630250000E+00   2.227371642090000E+00
   2.265447570300000E+00   2.304174353370000E+00   2.343563116740000E+00
   2.383625176050000E+00   2.424372040360000E+00   2.465815415440000E+00
   2.507967207180000E+00   2.550839524980000E+00   2.594444685210000E+00
   2.638795214800000E+00   2.683903854800000E+00   2.729783564050000E+00
   2.776447522890000E+00   2.823909136990000E+00   2.872182041140000E+00
   2.921280103220000E+00   2.971217428150000E+00   3.022008361950000E+00
   3.073667495880000E+00   3.126209670610000E+00   3.179649980490000E+00
   3.234003777880000E+00   3.289286677590000E+00   3.345514561310000E+00
   3.402703582230000E+00   3.460870169650000E+00   3.520031033700000E+00
   3.580203170160000E+00   3.641403865320000E+00   3.703650700940000E+00
   3.766961559350000E+00   3.831354628520000E+00   3.896848407350000E+00
   3.963461710920000E+00   4.031213675950000E+00   4.100123766260000E+00
   4.170211778400000E+00   4.241497847280000E+00   4.314002452030000E+00
   4.387746421810000E+00   4.462750941830000E+00   4.539037559450000E+00
   4.616628190320000E+00   4.695545124750000E+00   4.775811034030000E+00
   4.857448977010000E+00   4.940482406690000E+00   5.024935176970000E+00
   5.110831549490000E+00   5.198196200630000E+00   5.287054228540000E+00
   5.377431160440000E+00   5.469352959850000E+00   5.562846034140000E+00
   5.657937242050000E+00   5.754653901450000E+00   5.853023797160000E+00
   5.953075188950000E+00   6.054836819650000E+00   6.158337923410000E+00
   6.263608234100000E+00   6.370677993820000E+00   6.479577961660000E+00
   6.590339422470000E+00   6.702994195870000E+00   6.817574645400000E+00
   6.934113687800000E+00   7.052644802490000E+00   7.173202041170000E+00
   7.295820037580000E+00   7.420534017520000E+00   7.547379808890000E+00
   7.676393852040000E+00   7.807613210200000E+00   7.941075580160000E+00
   8.076819303070000E+00   8.214883375479999E+00   8.355307460520001E+00
   8.498131899320001E+00   8.643397722570000E+00   8.791146662330000E+00
   8.941421164019999E+00   9.094264398589999E+00   9.249720274950000E+00
   9.407833452549999E+00   9.568649354270001E+00   9.732214179380000E+00
   9.898574916910000E+00   1.006777935910000E+01   1.023987611500000E+01
   1.041491462480000E+01   1.059294517370000E+01   1.077401890630000E+01
   1.095818784170000E+01   1.114550488800000E+01   1.133602385780000E+01
   1.152979948350000E+01   1.172688743300000E+01   1.192734432600000E+01
   1.213122774990000E+01   1.233859627630000E+01   1.254950947830000E+01
   1.276402794710000E+01   1.298221330970000E+01   1.320412824660000E+01
   1.342983650970000E+01   1.365940294050000E+01   1.389289348900000E+01
   1.413037523270000E+01   1.437191639530000E+01   1.461758636690000E+01
   1.486745572390000E+01   1.512159624880000E+01   1.538008095140000E+01
   1.564298408910000E+01   1.591038118910000E+01   1.618234906930000E+01
   1.645896586090000E+01   1.674031103050000E+01   1.702646540310000E+01
   1.731751118530000E+01   1.761353198900000E+01   1.791461285520000E+01
   1.822084027860000E+01   1.853230223250000E+01   1.884908819380000E+01
   1.917128916890000E+01   1.949899772010000E+01   1.983230799160000E+01
   2.017131573700000E+01   2.051611834670000E+01   2.086681487580000E+01
   2.122350607270000E+01   2.158629440770000E+01   2.195528410300000E+01
   2.233058116220000E+01   2.271229340090000E+01   2.310053047750000E+01
   2.349540392510000E+01   2.389702718330000E+01   2.430551563050000E+01
   2.472098661760000E+01   2.514355950150000E+01   2.557335567900000E+01
   2.601049862230000E+01   2.645511391420000E+01   2.690732928400000E+01
   2.736727464440000E+01   2.783508212890000E+01   2.831088612940000E+01
   2.879482333530000E+01   2.928703277230000E+01   2.978765584270000E+01
   3.029683636580000E+01   3.081472061930000E+01   3.134145738140000E+01
   3.187719797330000E+01   3.242209630300000E+01   3.297630890910000E+01
   3.353999500620000E+01   3.411331653050000E+01   3.469643818620000E+01
   3.528952749270000E+01   3.589275483320000E+01   3.650629350320000E+01
   3.713031976050000E+01   3.776501287570000E+01   3.841055518400000E+01
   3.906713213710000E+01   3.973493235690000E+01   4.041414768950000E+01
   4.110497326030000E+01   4.180760753000000E+01   4.252225235200000E+01
   4.324911302990000E+01   4.398839837660000E+01   4.474032077460000E+01
   4.550509623660000E+01   4.628294446780000E+01   4.707408892890000E+01
   4.787875690040000E+01   4.869717954800000E+01   4.952959198840000E+01
   5.037623335780000E+01   5.123734687990000E+01   5.211317993580000E+01
   5.300398413550000E+01   5.391001538970000E+01   5.483153398380000E+01
   5.576880465220000E+01   5.672209665450000E+01   5.769168385330000E+01
   5.867784479200000E+01   5.968086277560000E+01   6.070102595190000E+01
   6.173862739390000E+01   6.279396518450000E+01   6.386734250180000E+01
   6.495906770620000E+01   6.606945442950000E+01   6.719882166399999E+01
   6.834749385530000E+01   6.951580099470000E+01   7.070407871400000E+01
   7.191266838260000E+01   7.314191720480000E+01   7.439217832010000E+01
   7.566381090429999E+01   7.695718027280000E+01   7.827265798569999E+01
   7.961062195410000E+01   8.097145654930000E+01   8.235555271270000E+01
   8.376330806830001E+01   8.519512703709999E+01   8.665142095280000E+01
   8.813260818060000E+01   8.963911423700000E+01   9.117137191179999E+01
   9.272982139320000E+01   9.431491039350000E+01   9.592709427800000E+01
   9.756683619610000E+01   9.923460721380000E+01   1.009308864490000E+02
   1.026561612110000E+02   1.044109271370000E+02   1.061956883380000E+02
   1.080109575410000E+02   1.098572562370000E+02   1.117351148320000E+02
   1.136450728000000E+02   1.155876788330000E+02   1.175634910060000E+02
   1.195730769300000E+02   1.216170139210000E+02   1.236958891620000E+02
   1.258102998740000E+02   1.279608534860000E+02   1.301481678110000E+02
   1.323728712220000E+02   1.346356028330000E+02   1.369370126830000E+02
   1.392777619220000E+02   1.416585230020000E+02   1.440799798710000E+02
   1.465428281660000E+02   1.490477754140000E+02   1.515955412410000E+02
   1.541868575680000E+02   1.568224688310000E+02   1.595031321910000E+02
   1.622296177500000E+02   1.650027087740000E+02   1.678232019190000E+02
   1.706919074580000E+02   1.736096495140000E+02   1.765772662990000E+02
   1.795956103520000E+02   1.826655487830000E+02   1.857879635270000E+02
   1.889637515940000E+02   1.921938253260000E+02   1.954791126600000E+02
   1.988205573960000E+02   2.022191194670000E+02
    </PP_R>
    <PP_RAB>
   2.100637437850000E-06   2.136544903170000E-06   2.173066156500000E-06
   2.210211689690000E-06   2.247992173920000E-06   2.286418462810000E-06
   2.325501595470000E-06   2.365252799750000E-06   2.405683495380000E-06
   2.446805297330000E-06   2.488630019090000E-06   2.531169676100000E-06
   2.574436489180000E-06   2.618442888040000E-06   2.663201514880000E-06
   2.708725227980000E-06   2.755027105410000E-06   2.802120448830000E-06
   2.850018787220000E-06   2.898735880870000E-06   2.948285725240000E-06
   2.998682555040000E-06   3.049940848320000E-06   3.102075330580000E-06
   3.155100979060000E-06   3.209033026990000E-06   3.263886968020000E-06
   3.319678560610000E-06   3.376423832620000E-06   3.434139085850000E-06
   3.492840900800000E-06   3.552546141340000E-06   3.613271959640000E-06
   3.675035801060000E-06   3.737855409150000E-06   3.801748830770000E-06
   3.866734421260000E-06   3.932830849720000E-06   4.000057104390000E-06
   4.068432498050000E-06   4.137976673650000E-06   4.208709609870000E-06
   4.280651626920000E-06   4.353823392340000E-06   4.428245926980000E-06
   4.503940610980000E-06   4.580929189960000E-06   4.659233781260000E-06
   4.738876880260000E-06   4.819881366890000E-06   4.902270512160000E-06
   4.986067984890000E-06   5.071297858470000E-06   5.157984617790000E-06
   5.246153166280000E-06   5.335828833050000E-06   5.427037380200000E-06
   5.519805010170000E-06   5.614158373300000E-06   5.710124575500000E-06
   5.807731185990000E-06   5.907006245260000E-06   6.007978273130000E-06
   6.110676276890000E-06   6.215129759700000E-06   6.321368729020000E-06
   6.429423705260000E-06   6.539325730510000E-06   6.651106377500000E-06
   6.764797758650000E-06   6.880432535290000E-06   6.998043927060000E-06
   7.117665721420000E-06   7.239332283420000E-06   7.363078565500000E-06
   7.488940117560000E-06   7.616953097200000E-06   7.747154280079999E-06
   7.879581070460000E-06   8.014271512010000E-06   8.151264298680000E-06
   8.290598785850000E-06   8.432315001630000E-06   8.576453658330000E-06
   8.723056164200001E-06   8.872164635310001E-06   9.023821907640000E-06
   9.178071549380000E-06   9.334957873480000E-06   9.494525950330000E-06
   9.656821620760001E-06   9.821891509180001E-06   9.989783036960000E-06
   1.016054443610000E-05   1.033422476300000E-05   1.051087391280000E-05
   1.069054263320000E-05   1.087328253970000E-05   1.105914612980000E-05
   1.124818679860000E-05   1.144045885380000E-05   1.163601753140000E-05
   1.183491901170000E-05   1.203722043530000E-05   1.224297991930000E-05
   1.245225657450000E-05   1.266511052210000E-05   1.288160291090000E-05
   1.310179593490000E-05   1.332575285140000E-05   1.355353799880000E-05
   1.378521681540000E-05   1.402085585800000E-05   1.426052282120000E-05
   1.450428655670000E-05   1.475221709300000E-05   1.500438565580000E-05
   1.526086468820000E-05   1.552172787180000E-05   1.578705014740000E-05
   1.605690773710000E-05   1.633137816560000E-05   1.661054028310000E-05
   1.689447428730000E-05   1.718326174710000E-05   1.747698562550000E-05
   1.777573030360000E-05   1.807958160510000E-05   1.838862682050000E-05
   1.870295473260000E-05   1.902265564170000E-05   1.934782139160000E-05
   1.967854539620000E-05   2.001492266610000E-05   2.035704983600000E-05
   2.070502519240000E-05   2.105894870180000E-05   2.141892203970000E-05
   2.178504861940000E-05   2.215743362210000E-05   2.253618402660000E-05
   2.292140864080000E-05   2.331321813200000E-05   2.371172505980000E-05
   2.411704390730000E-05   2.452929111480000E-05   2.494858511300000E-05
   2.537504635690000E-05   2.580879736060000E-05   2.624996273240000E-05
   2.669866921050000E-05   2.715504569960000E-05   2.761922330790000E-05
   2.809133538460000E-05   2.857151755830000E-05   2.905990777620000E-05
   2.955664634320000E-05   3.006187596280000E-05   3.057574177760000E-05
   3.109839141140000E-05   3.162997501130000E-05   3.217064529090000E-05
   3.272055757430000E-05   3.327986984080000E-05   3.384874276990000E-05
   3.442733978780000E-05   3.501582711420000E-05   3.561437381010000E-05
   3.622315182650000E-05   3.684233605350000E-05   3.747210437060000E-05
   3.811263769830000E-05   3.876412004920000E-05   3.942673858170000E-05
   4.010068365330000E-05   4.078614887530000E-05   4.148333116860000E-05
   4.219243082020000E-05   4.291365154080000E-05   4.364720052300000E-05
   4.439328850130000E-05   4.515212981240000E-05   4.592394245660000E-05
   4.670894816080000E-05   4.750737244200000E-05   4.831944467190000E-05
   4.914539814330000E-05   4.998547013660000E-05   5.083990198820000E-05
   5.170893915980000E-05   5.259283130900000E-05   5.349183236100000E-05
   5.440620058130000E-05   5.533619865020000E-05   5.628209373820000E-05
   5.724415758260000E-05   5.822266656570000E-05   5.921790179430000E-05
   6.023014918020000E-05   6.125969952240000E-05   6.230684859090001E-05
   6.337189721130001E-05   6.445515135140001E-05   6.555692220929999E-05
   6.667752630230000E-05   6.781728555840000E-05   6.897652740830000E-05
   7.015558487970001E-05   7.135479669320000E-05   7.257450735890000E-05
   7.381506727630001E-05   7.507683283400000E-05   7.636016651310000E-05
   7.766543699040000E-05   7.899301924480000E-05   8.034329466500000E-05
   8.171665115910000E-05   8.311348326580001E-05   8.453419226800000E-05
   8.597918630770001E-05   8.744888050390000E-05   8.894369707130001E-05
   9.046406544170000E-05   9.201042238750000E-05   9.358321214730000E-05
   9.518288655290001E-05   9.680990516000000E-05   9.846473537949999E-05
   1.001478526120000E-04   1.018597403850000E-04   1.036008904900000E-04
   1.053718031260000E-04   1.071729870420000E-04   1.090049596830000E-04
   1.108682473400000E-04   1.127633853000000E-04   1.146909179970000E-04
   1.166513991760000E-04   1.186453920450000E-04   1.206734694390000E-04
   1.227362139850000E-04   1.248342182710000E-04   1.269680850120000E-04
   1.291384272270000E-04   1.313458684130000E-04   1.335910427250000E-04
   1.358745951590000E-04   1.381971817350000E-04   1.405594696870000E-04
   1.429621376550000E-04   1.454058758780000E-04   1.478913863960000E-04
   1.504193832470000E-04   1.529905926760000E-04   1.556057533420000E-04
   1.582656165300000E-04   1.609709463670000E-04   1.637225200420000E-04
   1.665211280290000E-04   1.693675743130000E-04   1.722626766240000E-04
   1.752072666690000E-04   1.782021903710000E-04   1.812483081140000E-04
   1.843464949890000E-04   1.874976410440000E-04   1.907026515440000E-04
   1.939624472240000E-04   1.972779645630000E-04   2.006501560440000E-04
   2.040799904310000E-04   2.075684530510000E-04   2.111165460700000E-04
   2.147252887880000E-04   2.183957179260000E-04   2.221288879280000E-04
   2.259258712610000E-04   2.297877587250000E-04   2.337156597660000E-04
   2.377107027930000E-04   2.417740355050000E-04   2.459068252190000E-04
   2.501102592050000E-04   2.543855450290000E-04   2.587339108970000E-04
   2.631566060110000E-04   2.676549009260000E-04   2.722300879150000E-04
   2.768834813400000E-04   2.816164180310000E-04   2.864302576690000E-04
   2.913263831780000E-04   2.963062011200000E-04   3.013711420990000E-04
   3.065226611750000E-04   3.117622382810000E-04   3.170913786450000E-04
   3.225116132260000E-04   3.280244991520000E-04   3.336316201700000E-04
   3.393345870960000E-04   3.451350382820000E-04   3.510346400860000E-04
   3.570350873500000E-04   3.631381038850000E-04   3.693454429710000E-04
   3.756588878550000E-04   3.820802522680000E-04   3.886113809440000E-04
   3.952541501500000E-04   4.020104682250000E-04   4.088822761280000E-04
   4.158715479970000E-04   4.229802917140000E-04   4.302105494830000E-04
   4.375643984190000E-04   4.450439511390000E-04   4.526513563750000E-04
   4.603887995860000E-04   4.682585035900000E-04   4.762627292010000E-04
   4.844037758780000E-04   4.926839823860000E-04   5.011057274680000E-04
   5.096714305290000E-04   5.183835523300000E-04   5.272445956940001E-04