<UPF version="2.0.1">
  <PP_INFO>
    Generated by new atomic code, or converted to UPF format
    Author: 
    Generation date: 
    Pseudopotential type: US
    Element: Cd
    Functional: SLA  PZ   NOGX NOGC
    Suggested minimum cutoff for wavefunctions:   0. Ry
    Suggested minimum cutoff for charge density:   0. Ry
    The Pseudo was generated with a Non-Relativistic Calculation
    L component and cutoff radius for Local Potential:  0   0.0000
    Valence configuration: 
    nl pn  l   occ       Rcut    Rcut US       E pseu
    4D  3  2  9.50      0.000      0.000     0.000000
    5S  1  0  2.00      0.000      0.000     0.000000
    5P  2  1  0.00      0.000      0.000     0.000000
    Generation configuration: not available.
  </PP_INFO>
    <!-- END OF HUMAN READABLE SECTION -->
  <PP_HEADER generated="Generated by new atomic code, or converted to UPF format" author="" date="" comment="" element="Cd" pseudo_type="US" relativistic="no" is_ultrasoft="true" is_paw="false" is_coulomb="false" has_so="false" has_wfc="false" has_gipaw="false" paw_as_gipaw="false" core_correction="true" functional="SLA  PZ   NOGX NOGC" z_valence="12.000000000000000" total_psenergy="-113.86861733700000" wfc_cutoff="0.0000000000000000" rho_cutoff="0.0000000000000000" l_max="2" l_max_rho="0" l_local="0" mesh_size="889" number_of_wfc="3" number_of_proj="6"/>
  <PP_MESH>
    <PP_R>
   0.000000000000000E+00   1.192093986720000E-09   2.414365976390000E-09
   3.667579928800000E-09   4.952519143450000E-09   6.269986749190000E-09
   7.620806206150000E-09   9.005821820470000E-09   1.042589927200000E-08
   1.188192615540000E-08   1.337481253480000E-08   1.490549151280000E-08
   1.647491981370000E-08   1.808407838110000E-08   1.973397299160000E-08
   2.142563488300000E-08   2.316012139910000E-08   2.493851665040000E-08
   2.676193219190000E-08   2.863150771750000E-08   3.054841177290000E-08
   3.251384248540000E-08   3.452902831340000E-08   3.659522881350000E-08
   3.871373542820000E-08   4.088587229330000E-08   4.311299706480000E-08
   4.539650176840000E-08   4.773781366880000E-08   5.013839616210000E-08
   5.259974969060000E-08   5.512341268030000E-08   5.771096250270000E-08
   6.036401646079999E-08   6.308423279950000E-08   6.587331174280000E-08
   6.873299655560000E-08   7.166507463410000E-08   7.467137862260000E-08
   7.775378755890000E-08   8.091422804890001E-08   8.415467547080000E-08
   8.747715520980001E-08   9.088374392380000E-08   9.437657084160000E-08
   9.795781909390000E-08   1.016297270770000E-07   1.053945898540000E-07
   1.092547605850000E-07   1.132126520040000E-07   1.172707379210000E-07
   1.214315547720000E-07   1.256977032040000E-07   1.300718496970000E-07
   1.345567282350000E-07   1.391551420150000E-07   1.438699651930000E-07
   1.487041446880000E-07   1.536607020200000E-07   1.587427351990000E-07
   1.639534206590000E-07   1.692960152500000E-07   1.747738582680000E-07
   1.803903735410000E-07   1.861490715750000E-07   1.920535517440000E-07
   1.981075045410000E-07   2.043147138820000E-07   2.106790594750000E-07
   2.172045192440000E-07   2.238951718140000E-07   2.307551990600000E-07
   2.377888887230000E-07   2.450006370870000E-07   2.523949517300000E-07
   2.599764543400000E-07   2.677498836020000E-07   2.757200981620000E-07
   2.838920796650000E-07   2.922709358640000E-07   3.008619038180000E-07
   3.096703531610000E-07   3.187017894610000E-07   3.279618576590000E-07
   3.374563456000000E-07   3.471911876470000E-07   3.571724683940000E-07
   3.674064264660000E-07   3.778994584210000E-07   3.886581227430000E-07
   3.996891439500000E-07   4.109994167880000E-07   4.225960105460000E-07
   4.344861734730000E-07   4.466773373080000E-07   4.591771219240000E-07
   4.719933400940000E-07   4.851340023720001E-07   4.986073220990000E-07
   5.124217205390000E-07   5.265858321410000E-07   5.411085099350000E-07
   5.559988310670000E-07   5.712661024740000E-07   5.869198666960000E-07
   6.029699078470000E-07   6.194262577230000E-07   6.362992020799999E-07
   6.535992870570000E-07   6.713373257700000E-07   6.895244050710000E-07
   7.081718924770000E-07   7.272914432740000E-07   7.468950078030000E-07
   7.669948389320000E-07   7.876034997080000E-07   8.087338712150000E-07
   8.303991606240000E-07   8.526129094450000E-07   8.753890019950000E-07
   8.987416740730000E-07   9.226855218590000E-07   9.472355110380000E-07
   9.724069861520000E-07   9.982156801920001E-07   1.024677724430000E-06
   1.051809658510000E-06   1.079628440770000E-06   1.108151458860000E-06
   1.137396540590000E-06   1.167381965080000E-06   1.198126474210000E-06
   1.229649284300000E-06   1.261970098120000E-06   1.295109117240000E-06
   1.329087054620000E-06   1.363925147580000E-06   1.399645171060000E-06
   1.436269451250000E-06   1.473820879500000E-06   1.512322926680000E-06
   1.551799657830000E-06   1.592275747180000E-06   1.633776493620000E-06
   1.676327836450000E-06   1.719956371660000E-06   1.764689368490000E-06
   1.810554786530000E-06   1.857581293150000E-06   1.905798281460000E-06
   1.955235888630000E-06   2.005925014790000E-06   2.057897342290000E-06
   2.111185355530000E-06   2.165822361240000E-06   2.221842509340000E-06
   2.279280814230000E-06   2.338173176740000E-06   2.398556406500000E-06
   2.460468245000000E-06   2.523947389160000E-06   2.589033515500000E-06
   2.655767304970000E-06   2.724190468370000E-06   2.794345772400000E-06
   2.866277066400000E-06   2.940029309780000E-06   3.015648600090000E-06
   3.093182201840000E-06   3.172678576070000E-06   3.254187410600000E-06
   3.337759651090000E-06   3.423447532930000E-06   3.511304613820000E-06
   3.601385807310000E-06   3.693747417060000E-06   3.788447172100000E-06
   3.885544262840000E-06   3.985099378150000E-06   4.087174743190000E-06
   4.191834158410000E-06   4.299143039330000E-06   4.409168457510000E-06
   4.521979182420000E-06   4.637645724410000E-06   4.756240378860000E-06
   4.877837271280000E-06   5.002512403690000E-06   5.130343702100000E-06
   5.261411065240000E-06   5.395796414470000E-06   5.533583745020000E-06
   5.674859178440000E-06   5.819711016490000E-06   5.968229796280000E-06
   6.120508346870000E-06   6.276641847330000E-06   6.436727886170000E-06
   6.600866522380000E-06   6.769160347950000E-06   6.941714551990000E-06
   7.118636986510000E-06   7.300038233780000E-06   7.486031675480000E-06
   7.676733563590000E-06   7.872263092970000E-06   8.072742475950000E-06
   8.278297018680001E-06   8.489055199429999E-06   8.705148748930000E-06
   8.926712732679999E-06   9.153885635380000E-06   9.386809447500001E-06
   9.625629753990001E-06   9.870495825320001E-06   1.012156071080000E-05
   1.037898133400000E-05   1.064291859140000E-05   1.091353745230000E-05
   1.119100706220000E-05   1.147550084880000E-05   1.176719662980000E-05
   1.206627672470000E-05   1.237292806830000E-05   1.268734232760000E-05
   1.300971602170000E-05   1.334025064480000E-05   1.367915279160000E-05
   1.402663428720000E-05   1.438291231870000E-05   1.474820957160000E-05
   1.512275436840000E-05   1.550678081190000E-05   1.590052893110000E-05
   1.630424483130000E-05   1.671818084830000E-05   1.714259570540000E-05
   1.757775467580000E-05   1.802392974790000E-05   1.848139979580000E-05
   1.895045075310000E-05   1.943137579190000E-05   1.992447550600000E-05
   2.043005809880000E-05   2.094843957590000E-05   2.147994394250000E-05
   2.202490340630000E-05   2.258365858450000E-05   2.315655871750000E-05
   2.374396188630000E-05   2.434623523720000E-05   2.496375521050000E-05
   2.559690777640000E-05   2.624608867580000E-05   2.691170366790000E-05
   2.759416878380000E-05   2.829391058630000E-05   2.901136643690000E-05
   2.974698476880000E-05   3.050122536740000E-05   3.127455965770000E-05
   3.206747099880000E-05   3.288045498600000E-05   3.371401976090000E-05
   3.456868632850000E-05   3.544498888320000E-05   3.634347514280000E-05
   3.726470669030000E-05   3.820925932550000E-05   3.917772342440000E-05
   4.017070430880000E-05   4.118882262390000E-05   4.223271472680000E-05
   4.330303308420000E-05   4.440044667980000E-05   4.552564143280000E-05
   4.667932062660000E-05   4.786220534830000E-05   4.907503493920000E-05
   5.031856745740000E-05   5.159358015120000E-05   5.290086994500000E-05
   5.424125393750000E-05   5.561556991230000E-05   5.702467686170000E-05
   5.846945552330000E-05   5.995080893090000E-05   6.146966297850000E-05
   6.302696699940000E-05   6.462369435920000E-05   6.626084306460000E-05
   6.793943638690001E-05   6.966052350130000E-05   7.142518014360000E-05
   7.323450928139999E-05   7.508964180430000E-05   7.699173723070000E-05
   7.894198443209999E-05   8.094160237640000E-05   8.299184089000000E-05
   8.509398143870000E-05   8.724933792870000E-05   8.945925752799999E-05
   9.172512150840000E-05   9.404834610850001E-05   9.643038341930000E-05
   9.887272229180000E-05   1.013768892670000E-04   1.039444495310000E-04
   1.065770078930000E-04   1.092762097870000E-04   1.120437423020000E-04
   1.148813352370000E-04   1.177907621780000E-04   1.207738416130000E-04
   1.238324380640000E-04   1.269684632520000E-04   1.301838772960000E-04
   1.334806899340000E-04   1.368609617820000E-04   1.403268056180000E-04
   1.438803877090000E-04   1.475239291590000E-04   1.512597073000000E-04
   1.550900571150000E-04   1.590173726970000E-04   1.630441087460000E-04
   1.671727821040000E-04   1.714059733250000E-04   1.757463282930000E-04
   1.801965598690000E-04   1.847594495940000E-04   1.894378494230000E-04
   1.942346835070000E-04   1.991529500240000E-04   2.041957230500000E-04
   2.093661544840000E-04   2.146674760120000E-04   2.201030011340000E-04
   2.256761272300000E-04   2.313903376840000E-04   2.372492040650000E-04
   2.432563883540000E-04   2.494156452370000E-04   2.557308244510000E-04
   2.622058731880000E-04   2.688448385640000E-04   2.756518701490000E-04
   2.826312225580000E-04   2.897872581150000E-04   2.971244495750000E-04
   3.046473829210000E-04   3.123607602310000E-04   3.202694026170000E-04
   3.283782532380000E-04   3.366923803910000E-04   3.452169806740000E-04
   3.539573822410000E-04   3.629190481270000E-04   3.721075796650000E-04
   3.815287199860000E-04   3.911883576100000E-04   4.010925301250000E-04
   4.112474279600000E-04   4.216593982580000E-04   4.323349488390000E-04
   4.432807522700000E-04   4.545036500340000E-04   4.660106568070000E-04
   4.778089648440000E-04   4.899059484710000E-04   5.023091686960000E-04
   5.150263779360000E-04   5.280655248610000E-04   5.414347593610000E-04
   5.551424376450000E-04   5.691971274560000E-04   5.836076134340000E-04
   5.983829026010000E-04   6.135322299940000E-04   6.290650644360000E-04
   6.449911144540000E-04   6.613203343470000E-04   6.780629304100000E-04
   6.952293673110000E-04   7.128303746300000E-04   7.308769535720000E-04
   7.493803838340000E-04   7.683522306630000E-04   7.878043520820000E-04
   8.077489062980000E-04   8.281983593090000E-04   8.491654926870000E-04
   8.706634115730000E-04   8.927055528670001E-04   9.153056936250000E-04
   9.384779596700000E-04   9.622368344220000E-04   9.865971679529999E-04
   1.011574186260000E-03   1.037183500800000E-03   1.063441118220000E-03
   1.090363450400000E-03   1.117967324650000E-03   1.146269994310000E-03
   1.175289149470000E-03   1.205042928030000E-03   1.235549927080000E-03
   1.266829214500000E-03   1.298900340840000E-03   1.331783351610000E-03
   1.365498799760000E-03   1.400067758550000E-03   1.435511834690000E-03
   1.471853181900000E-03   1.509114514680000E-03   1.547319122600000E-03
   1.586490884780000E-03   1.626654284830000E-03   1.667834426190000E-03
   1.710057047800000E-03   1.753348540160000E-03   1.797735961870000E-03
   1.843247056510000E-03   1.889910270000000E-03   1.937754768360000E-03
   1.986810455960000E-03   2.037107994210000E-03   2.088678820700000E-03
   2.141555168870000E-03   2.195770088180000E-03   2.251357464700000E-03
   2.308352042350000E-03   2.366789444610000E-03   2.426706196750000E-03
   2.488139748690000E-03   2.551128498410000E-03   2.615711815910000E-03
   2.681930067880000E-03   2.749824642880000E-03   2.819437977230000E-03
   2.890813581530000E-03   2.963996067860000E-03   3.039031177640000E-03
   3.115965810280000E-03   3.194848052410000E-03   3.275727208000000E-03
   3.358653829170000E-03   3.443679747750000E-03   3.530858107710000E-03
   3.620243398350000E-03   3.711891488410000E-03   3.805859660900000E-03
   3.902206649010000E-03   4.000992672740000E-03   4.102279476560000E-03
   4.206130368030000E-03   4.312610257330000E-03   4.421785697860000E-03
   4.533724927830000E-03   4.648497912900000E-03   4.766176389910000E-03
   4.886833911760000E-03   5.010545893310000E-03   5.137389658590000E-03
   5.267444489070000E-03   5.400791673260000E-03   5.537514557490000E-03
   5.677698598010000E-03   5.821431414420000E-03   5.968802844390000E-03
   6.119904999880000E-03   6.274832324640000E-03   6.433681653300000E-03
   6.596552271870000E-03   6.763545979770000E-03   6.934767153510000E-03
   7.110322811910000E-03   7.290322682950000E-03   7.474879272430000E-03
   7.664107934210000E-03   7.858126942370000E-03   8.057057565110000E-03
   8.261024140530000E-03   8.470154154400000E-03   8.684578319770000E-03
   8.904430658740000E-03   9.129848586160000E-03   9.360972995580001E-03
   9.597948347280000E-03   9.840922758579999E-03   1.009004809640000E-02
   1.034548007210000E-02   1.060737833910000E-02   1.087590659230000E-02
   1.115123267060000E-02   1.143352866180000E-02   1.172297100990000E-02
   1.201974062610000E-02   1.232402300080000E-02   1.263600832050000E-02
   1.295589158620000E-02   1.328387273530000E-02   1.362015676670000E-02
   1.396495386890000E-02   1.431847955130000E-02   1.468095477890000E-02
   1.505260611070000E-02   1.543366584070000E-02   1.582437214370000E-02
   1.622496922380000E-02   1.663570746730000E-02   1.705684359890000E-02
   1.748864084250000E-02   1.793136908530000E-02   1.838530504700000E-02
   1.885073245220000E-02   1.932794220830000E-02   1.981723258690000E-02
   2.031890941040000E-02   2.083328624310000E-02   2.136068458740000E-02
   2.190143408430000E-02   2.245587271990000E-02   2.302434703640000E-02
   2.360721234870000E-02   2.420483296660000E-02   2.481758242260000E-02
   2.544584370480000E-02   2.609000949710000E-02   2.675048242410000E-02
   2.742767530290000E-02   2.812201140100000E-02   2.883392470110000E-02
   2.956386017220000E-02   3.031227404770000E-02   3.107963411070000E-02
   3.186641998610000E-02   3.267312344080000E-02   3.350024869080000E-02
   3.434831271610000E-02   3.521784558440000E-02   3.610939078200000E-02
   3.702350555380000E-02   3.796076125130000E-02   3.892174368960000E-02
   3.990705351430000E-02   4.091730657580000E-02   4.195313431540000E-02
   4.301518415910000E-02   4.410411992260000E-02   4.522062222610000E-02
   4.636538892010000E-02   4.753913552080000E-02   4.874259565830000E-02
   4.997652153410000E-02   5.124168439220000E-02   5.253887500060000E-02
   5.386890414560000E-02   5.523260313860000E-02   5.663082433600000E-02
   5.806444167160000E-02   5.953435120280000E-02   6.104147167090000E-02
   6.258674507540000E-02   6.417113726230000E-02   6.579563852830000E-02
   6.746126423980001E-02   6.916905546679999E-02   7.092007963459999E-02
   7.271543119030000E-02   7.455623228690000E-02   7.644363348520000E-02
   7.837881447230000E-02   8.036298479930000E-02   8.239738463729999E-02
   8.448328555240001E-02   8.662199130060000E-02   8.881483864250000E-02
   9.106319817920000E-02   9.336847520850000E-02   9.573211060370000E-02
   9.815558171380000E-02   1.006404032870000E-01   1.031881284180000E-01
   1.058003495180000E-01   1.084786993090000E-01   1.112248518490000E-01
   1.140405235710000E-01   1.169274743620000E-01   1.198875086600000E-01
   1.229224765830000E-01   1.260342750850000E-01   1.292248491410000E-01
   1.324961929640000E-01   1.358503512500000E-01   1.392894204570000E-01
   1.428155501160000E-01   1.464309441720000E-01   1.501378623640000E-01
   1.539386216380000E-01   1.578355975900000E-01   1.618312259580000E-01
   1.659280041400000E-01   1.701284927550000E-01   1.744353172460000E-01
   1.788511695180000E-01   1.833788096220000E-01   1.880210674810000E-01
   1.927808446580000E-01   1.976611161670000E-01   2.026649323380000E-01
   2.077954207180000E-01   2.130557880300000E-01   2.184493221750000E-01
   2.239793942860000E-01   2.296494608400000E-01   2.354630658110000E-01
   2.414238428940000E-01   2.475355177660000E-01   2.538019104240000E-01
   2.602269375680000E-01   2.668146150490000E-01   2.735690603780000E-01
   2.804944953060000E-01   2.875952484530000E-01   2.948757580220000E-01
   3.023405745680000E-01   3.099943638450000E-01   3.178419097190000E-01
   3.258881171640000E-01   3.341380153190000E-01   3.425967606410000E-01
   3.512696401200000E-01   3.601620745880000E-01   3.692796221070000E-01
   3.786279814400000E-01   3.882129956160000E-01   3.980406555810000E-01
   4.081171039430000E-01   4.184486388100000E-01   4.290417177260000E-01
   4.399029617130000E-01   4.510391594000000E-01   4.624572712730000E-01
   4.741644340250000E-01   4.861679650130000E-01   4.984753668340000E-01
   5.110943320160000E-01   5.240327478230000E-01   5.372987011850000E-01
   5.509004837550000E-01   5.648465970900000E-01   5.791457579650000E-01
   5.938069038220000E-01   6.088391983520000E-01   6.242520372310000E-01
   6.400550539830000E-01   6.562581260090000E-01   6.728713807559999E-01
   6.899052020490000E-01   7.073702365820000E-01   7.252774005680001E-01
   7.436378865690000E-01   7.624631704860000E-01   7.817650187350000E-01
   8.015554955980000E-01   8.218469707680000E-01   8.426521270780000E-01
   8.639839684270000E-01   8.858558279110000E-01   9.082813761540000E-01
   9.312746298540000E-01   9.548499605420000E-01   9.790221035680000E-01
   1.003806167310000E+00   1.029217642610000E+00   1.055272412470000E+00
   1.081986761970000E+00   1.109377388450000E+00   1.137461411930000E+00
   1.166256385860000E+00   1.195780308020000E+00   1.226051631830000E+00
   1.257089277850000E+00   1.288912645630000E+00   1.321541625790000E+00
   1.354996612510000E+00   1.389298516260000E+00   1.424468776840000E+00
   1.460529376800000E+00   1.497502855190000E+00   1.535412321650000E+00
   1.574281470820000E+00   1.614134597190000E+00   1.654996610250000E+00
   1.696893050100000E+00   1.739850103370000E+00   1.783894619620000E+00
   1.829054128110000E+00   1.875356855000000E+00   1.922831741010000E+00
   1.971508459470000E+00   2.021417434930000E+00   2.072589862120000E+00
   2.125057725470000E+00   2.178853819100000E+00   2.234011767330000E+00
   2.290566045660000E+00   2.348552002370000E+00   2.408005880560000E+00
   2.468964840840000E+00   2.531466984550000E+00   2.595551377560000E+00
   2.661258074700000E+00   2.728628144800000E+00   2.797703696350000E+00
   2.868527903800000E+00   2.941145034610000E+00   3.015600476830000E+00
   3.091940767550000E+00   3.170213621920000E+00   3.250467963040000E+00
   3.332753952480000E+00   3.417123021660000E+00   3.503627903990000E+00
   3.592322667840000E+00   3.683262750340000E+00   3.776504991980000E+00
   3.872107672200000E+00   3.970130545800000E+00   4.070634880250000E+00
   4.173683494050000E+00   4.279340795930000E+00   4.387672825130000E+00
   4.498747292710000E+00   4.612633623830000E+00   4.729403001140000E+00
   4.849128409320000E+00   4.971884680630000E+00   5.097748541750000E+00
   5.226798661680000E+00   5.359115700950000E+00   5.494782362010000E+00
   5.633883440950000E+00   5.776505880480000E+00   5.922738824240000E+00
   6.072673672600000E+00   6.226404139720000E+00   6.384026312150000E+00
   6.545638708860000E+00   6.711342342880000E+00   6.881240784360000E+00
   7.055440225370000E+00   7.234049546220000E+00   7.417180383550000E+00
   7.604947200100000E+00   7.797467356250000E+00   7.994861183350000E+00
   8.197252058969999E+00   8.404766484010000E+00   8.617534161720000E+00
   8.835688078840001E+00   9.059364588670000E+00   9.288703496300000E+00
   9.523848146010000E+00   9.764945510880001E+00   1.001214628460000E+01
   1.026560497570000E+01   1.052548000410000E+01   1.079193380020000E+01
   1.106513290620000E+01   1.134524808050000E+01   1.163245440430000E+01
   1.192693139070000E+01   1.222886309750000E+01   1.253843824190000E+01
   1.285585031840000E+01   1.318129771980000E+01   1.351498386150000E+01
   1.385711730800000E+01   1.420791190400000E+01   1.456758690740000E+01
   1.493636712690000E+01   1.531448306210000E+01   1.570217104780000E+01
   1.609967340160000E+01   1.650723857530000E+01   1.692512131060000E+01
   1.735358279760000E+01   1.779289083890000E+01   1.824332001610000E+01
   1.870515186230000E+01   1.917867503730000E+01   1.966418550860000E+01
   2.016198673590000E+01   2.067238986130000E+01   2.119571390340000E+01
   2.173228595670000E+01   2.228244139610000E+01   2.284652408680000E+01
   2.342488659890000E+01   2.401789042760000E+01   2.462590621970000E+01
   2.524931400480000E+01   2.588850343320000E+01   2.654387401900000E+01
   2.721583539020000E+01   2.790480754450000E+01   2.861122111190000E+01
   2.933551762380000E+01   3.007814978930000E+01   3.083958177760000E+01
   3.162028950840000E+01   3.242076094950000E+01   3.324149642160000E+01
   3.408300891120000E+01   3.494582439080000E+01   3.583048214820000E+01
   3.673753512350000E+01   3.766755025410000E+01   3.862110882980000E+01
   3.959880685580000E+01   4.060125542520000E+01   4.162908110090000E+01
   4.268292630750000E+01   4.376344973250000E+01   4.487132673820000E+01
   4.600724978390000E+01   4.717192885840000E+01   4.836609192400000E+01
   4.959048537150000E+01   5.084587448680000E+01   5.213304392870000E+01
   5.345279822030000E+01   5.480596225080000E+01   5.619338179180000E+01
   5.761592402580000E+01   5.907447808780000E+01   6.056995562170000E+01
   6.210329134960000E+01   6.367544365630000E+01   6.528739518810001E+01
   6.694015346720001E+01   6.863475152130000E+01   7.037224852940000E+01
   7.215373048370000E+01   7.398031086840000E+01   7.585313135570000E+01
   7.777336251929999E+01   7.974220456620000E+01   8.176088808690000E+01
   8.383067482420000E+01   8.595285846220000E+01   8.812876543480000E+01
   9.035975575460000E+01   9.264722386330000E+01   9.499259950290001E+01
   9.739734860940000E+01   9.986297422940000E+01   1.023910174590000E+02
   1.049830584080000E+02   1.076407171860000E+02   1.103656549160000E+02
   1.131595747730000E+02   1.160242230480000E+02   1.189613902390000E+02
   1.219729121720000E+02   1.250606711460000E+02   1.282265971100000E+02
   1.314726688710000E+02   1.348009153310000E+02   1.382134167500000E+02
   1.417123060550000E+02   1.452997701630000E+02   1.489780513580000E+02
   1.527494486850000E+02   1.566163193900000E+02   1.605810803930000E+02
   1.646462097980000E+02   1.688142484440000E+02   1.730878014910000E+02
   1.774695400480000E+02   1.819622028450000E+02   1.865685979420000E+02
   1.912916044860000E+02   1.961341745100000E+02   2.010993347780000E+02
   2.061901886770000E+02
    </PP_R>
    <PP_RAB>
   1.177254899470000E-09   1.207057249140000E-09   1.237614048880000E-09
   1.268944397690000E-09   1.301067878060000E-09   1.334004568200000E-09
   1.367775054620000E-09   1.402400444980000E-09   1.437902381270000E-09
   1.474303053350000E-09   1.511625212840000E-09   1.549892187290000E-09
   1.589127894810000E-09   1.629356859000000E-09   1.670604224260000E-09
   1.712895771550000E-09   1.756257934450000E-09   1.800717815730000E-09
   1.846303204270000E-09   1.893042592410000E-09   1.940965193790000E-09
   1.990100961610000E-09   2.040480607300000E-09   2.092135619810000E-09
   2.145098285170000E-09   2.199401706800000E-09   2.255079826090000E-09
   2.312167443680000E-09   2.370700241190000E-09   2.430714803520000E-09
   2.492248641730000E-09   2.555340216480000E-09   2.620028962040000E-09
   2.686355310990000E-09   2.754360719460000E-09   2.824087693040000E-09
   2.895579813360000E-09   2.968881765320000E-09   3.044039365030000E-09
   3.121099588440000E-09   3.200110600690000E-09   3.281121786240000E-09
   3.364183779710000E-09   3.449348497560000E-09   3.536669170510000E-09
   3.626200376820000E-09   3.717998076400000E-09   3.812119645820000E-09
   3.908623914100000E-09   4.007571199570000E-09   4.109023347500000E-09
   4.213043768780000E-09   4.319697479560000E-09   4.429051141890000E-09
   4.541173105350000E-09   4.656133449840000E-09   4.774004029300000E-09
   4.894858516680000E-09   5.018772449980000E-09   5.145823279440000E-09
   5.276090415950000E-09   5.409655280730000E-09   5.546601356160000E-09
   5.687014237990000E-09   5.830981688850000E-09   5.978593693080000E-09
   6.129942512990000E-09   6.285122746510000E-09   6.444231386350000E-09
   6.607367880580000E-09   6.774634194830000E-09   6.946134875980000E-09
   7.121977117540000E-09   7.302270826640000E-09   7.487128692720001E-09
   7.676666257960001E-09   7.871001989510000E-09   8.070257353520000E-09
   8.274556891090000E-09   8.484028296070000E-09   8.698802494920000E-09
   8.919013728500000E-09   9.144799635990001E-09   9.376301340950001E-09
   9.613663539469999E-09   9.857034590650000E-09   1.010656660930000E-08
   1.036241556110000E-08   1.062474136000000E-08   1.089370796810000E-08
   1.116948349820000E-08   1.145224031920000E-08   1.174215516310000E-08
   1.203940923630000E-08   1.234418833220000E-08   1.265668294760000E-08
   1.297708840180000E-08   1.330560495880000E-08   1.364243795200000E-08
   1.398779791300000E-08   1.434190070300000E-08   1.470496764780000E-08
   1.507722567620000E-08   1.545890746130000E-08   1.585025156690000E-08
   1.625150259560000E-08   1.666291134250000E-08   1.708473495150000E-08
   1.751723707590000E-08   1.796068804370000E-08   1.841536502630000E-08
   1.888155221140000E-08   1.935954098130000E-08   1.984963009460000E-08
   2.035212587280000E-08   2.086734239220000E-08   2.139560167980000E-08
   2.193723391510000E-08   2.249257763560000E-08   2.306197994930000E-08
   2.364579675130000E-08   2.424439294590000E-08   2.485814267540000E-08
   2.548742955330000E-08   2.613264690430000E-08   2.679419801030000E-08
   2.747249636220000E-08   2.816796591880000E-08   2.888104137090000E-08
   2.961216841410000E-08   3.036180402650000E-08   3.113041675480000E-08
   3.191848700690000E-08   3.272650735240000E-08   3.355498283040000E-08
   3.440443126490000E-08   3.527538358900000E-08   3.616838417610000E-08
   3.708399118070000E-08   3.802277688690000E-08   3.898532806650000E-08
   3.997224634520000E-08   4.098414857910000E-08   4.202166723990000E-08
   4.308545081070000E-08   4.417616419090000E-08   4.529448911170000E-08
   4.644112456260000E-08   4.761678722820000E-08   4.882221193590000E-08
   5.005815211530000E-08   5.132538026930000E-08   5.262468845680000E-08
   5.395688878770000E-08   5.532281393040000E-08   5.672331763280000E-08
   5.815927525530000E-08   5.963158431800001E-08   6.114116506200000E-08
   6.268896102460000E-08   6.427593962850000E-08   6.590309278700000E-08
   6.757143752380000E-08   6.928201660880000E-08   7.103589920940000E-08
   7.283418155940000E-08   7.467798764390000E-08   7.656846990160000E-08
   7.850680994560000E-08   8.049421930130000E-08   8.253194016450000E-08
   8.462124617680000E-08   8.676344322270000E-08   8.895987024499999E-08
   9.121190008210000E-08   9.352094032599999E-08   9.588843420190000E-08
   9.831586147059999E-08   1.008047393530000E-07   1.033566234790000E-07
   1.059731088600000E-07   1.086558308830000E-07   1.114064663370000E-07
   1.142267344600000E-07   1.171183980100000E-07   1.200832643710000E-07
   1.231231866820000E-07   1.262400649920000E-07   1.294358474520000E-07
   1.327125315300000E-07   1.360721652610000E-07   1.395168485250000E-07
   1.430487343600000E-07   1.466700303120000E-07   1.503829998060000E-07
   1.541899635710000E-07   1.580933010830000E-07   1.620954520540000E-07
   1.661989179590000E-07   1.704062635980000E-07   1.747201186990000E-07
   1.791431795620000E-07   1.836782107440000E-07   1.883280467870000E-07
   1.930955939890000E-07   1.979838322240000E-07   2.029958167980000E-07
   2.081346803670000E-07   2.134036348850000E-07   2.188059736230000E-07
   2.243450732170000E-07   2.300243957840000E-07   2.358474910870000E-07
   2.418179987490000E-07   2.479396505320000E-07   2.542162726680000E-07
   2.606517882500000E-07   2.672502196850000E-07   2.740156912060000E-07
   2.809524314550000E-07   2.880647761190000E-07   2.953571706450000E-07
   3.028341730180000E-07   3.105004566060000E-07   3.183608130880000E-07
   3.264201554420000E-07   3.346835210190000E-07   3.431560746910000E-07
   3.518431120800000E-07   3.607500628680000E-07   3.698824941890000E-07
   3.792461141090000E-07   3.888467751960000E-07   3.986904781760000E-07
   4.087833756830000E-07   4.191317761070000E-07   4.297421475340000E-07
   4.406211217940000E-07   4.517754985970000E-07   4.632122497940000E-07
   4.749385237260000E-07   4.869616496960001E-07   4.992891425490000E-07
   5.119287073690000E-07   5.248882442960000E-07   5.381758534620000E-07
   5.517998400560000E-07   5.657687195120001E-07   5.800912228360000E-07
   5.947763020570000E-07   6.098331358290000E-07   6.252711351620000E-07
   6.410999493090000E-07   6.573294717940000E-07   6.739698465970000E-07
   6.910314744930000E-07   7.085250195560000E-07   7.264614158210000E-07
   7.448518741189999E-07   7.637078890850000E-07   7.830412463420000E-07
   8.028640298690000E-07   8.231886295500000E-07   8.440277489220000E-07
   8.653944131110000E-07   8.873019769810000E-07   9.097641334690000E-07
   9.327949221570000E-07   9.564087380360000E-07   9.806203405100001E-07
   1.005444862620000E-06   1.030897820500000E-06   1.056995123070000E-06
   1.083753082000000E-06   1.111188421890000E-06   1.139318290720000E-06
   1.168160270570000E-06   1.197732388610000E-06   1.228053128380000E-06
   1.259141441340000E-06   1.291016758680000E-06   1.323699003530000E-06
   1.357208603340000E-06   1.391566502710000E-06   1.426794176440000E-06