<UPF version="2.0.1">
  <PP_INFO>
    Generated by new atomic code, or converted to UPF format
    Author: 
    Generation date: 
    Pseudopotential type: US
    Element: Cl
    Functional:  SLA  PZ   NOGX NOGC
    Suggested minimum cutoff for wavefunctions:   0. Ry
    Suggested minimum cutoff for charge density:   0. Ry
    The Pseudo was generated with a Non-Relativistic Calculation
    L component and cutoff radius for Local Potential:  0   0.0000
    Valence configuration: 
    nl pn  l   occ       Rcut    Rcut US       E pseu
    3S  1  0  2.00      0.000      0.000     0.000000
    3P  2  1  5.00      0.000      0.000     0.000000
    Generation configuration: not available.
  </PP_INFO>
    <!-- END OF HUMAN READABLE SECTION -->
  <PP_HEADER generated="Generated by new atomic code, or converted to UPF format" author="" date="" comment="" element="Cl" pseudo_type="US" relativistic="no" is_ultrasoft="true" is_paw="false" is_coulomb="false" has_so="false" has_wfc="false" has_gipaw="false" paw_as_gipaw="false" core_correction="true" functional=" SLA  PZ   NOGX NOGC" z_valence="7.0000000000000000" total_psenergy="-33.120736950700000" wfc_cutoff="0.0000000000000000" rho_cutoff="0.0000000000000000" l_max="2" l_max_rho="0" l_local="0" mesh_size="909" number_of_wfc="2" number_of_proj="6"/>
  <PP_MESH>
    <PP_R>
   0.000000000000000E+00   9.014935050810000E-07   1.818137807850000E-06
   2.750187537620000E-06   3.697901603080000E-06   4.661543264240000E-06
   5.641380205530000E-06   6.637684610180000E-06   7.650733235820000E-06
   8.680807491360000E-06   9.728193515159999E-06   1.079318225450000E-05
   1.187606954650000E-05   1.297715620010000E-05   1.409674807970000E-05
   1.523515619040000E-05   1.639269676390000E-05   1.756969134670000E-05
   1.876646688940000E-05   1.998335583720000E-05   2.122069622270000E-05
   2.247883175950000E-05   2.375811193780000E-05   2.505889212150000E-05
   2.638153364670000E-05   2.772640392230000E-05   2.909387653210000E-05
   3.048433133840000E-05   3.189815458760000E-05   3.333573901740000E-05
   3.479748396610000E-05   3.628379548330000E-05   3.779508644290000E-05
   3.933177665770000E-05   4.089429299600000E-05   4.248306950010000E-05
   4.409854750700000E-05   4.574117577110000E-05   4.741141058840000E-05
   4.910971592390000E-05   5.083656354000000E-05   5.259243312760000E-05
   5.437781243970000E-05   5.619319742630000E-05   5.803909237280000E-05
   5.991601003960000E-05   6.182447180480000E-05   6.376500780900000E-05
   6.573815710240000E-05   6.774446779480000E-05   6.978449720740000E-05
   7.185881202839999E-05   7.396798846960000E-05   7.611261242690000E-05
   7.829327964300000E-05   8.051059587280000E-05   8.276517705170000E-05
   8.505764946680000E-05   8.738864993069999E-05   8.975882595850000E-05
   9.216883594780000E-05   9.461934936110000E-05   9.711104691249999E-05
   9.964462075610000E-05   1.022207746790000E-04   1.048402242960000E-04
   1.075036972480000E-04   1.102119334070000E-04   1.129656850770000E-04
   1.157657172080000E-04   1.186128076040000E-04   1.215077471410000E-04
   1.244513399890000E-04   1.274444038310000E-04   1.304877700930000E-04
   1.335822841740000E-04   1.367288056800000E-04   1.399282086670000E-04
   1.431813818770000E-04   1.464892289920000E-04   1.498526688770000E-04
   1.532726358450000E-04   1.567500799070000E-04   1.602859670430000E-04
   1.638812794660000E-04   1.675370158980000E-04   1.712541918440000E-04
   1.750338398780000E-04   1.788770099250000E-04   1.827847695570000E-04
   1.867582042890000E-04   1.907984178780000E-04   1.949065326310000E-04
   1.990836897180000E-04   2.033310494870000E-04   2.076497917870000E-04
   2.120411162980000E-04   2.165062428590000E-04   2.210464118120000E-04
   2.256628843450000E-04   2.303569428400000E-04   2.351298912330000E-04
   2.399830553740000E-04   2.449177833950000E-04   2.499354460850000E-04
   2.550374372720000E-04   2.602251742090000E-04   2.655000979670000E-04
   2.708636738360000E-04   2.763173917330000E-04   2.818627666150000E-04
   2.875013388990000E-04   2.932346748920000E-04   2.990643672240000E-04
   3.049920352920000E-04   3.110193257070000E-04   3.171479127570000E-04
   3.233794988650000E-04   3.297158150680000E-04   3.361586214950000E-04
   3.427097078550000E-04   3.493708939370000E-04   3.561440301130000E-04
   3.630309978530000E-04   3.700337102480000E-04   3.771541125420000E-04
   3.843941826690000E-04   3.917559318060000E-04   3.992414049320000E-04
   4.068526813920000E-04   4.145918754800000E-04   4.224611370190000E-04
   4.304626519690000E-04   4.385986430220000E-04   4.468713702280000E-04
   4.552831316220000E-04   4.638362638560000E-04   4.725331428570000E-04
   4.813761844790000E-04   4.903678451800000E-04   4.995106227020000E-04
   5.088070567640000E-04   5.182597297680000E-04   5.278712675170000E-04
   5.376443399460001E-04   5.475816618580000E-04   5.576859936860000E-04
   5.679601422530000E-04   5.784069615550000E-04   5.890293535540000E-04
   5.998302689820000E-04   6.108127081630000E-04   6.219797218450000E-04
   6.333344120490000E-04   6.448799329280000E-04   6.566194916459999E-04
   6.685563492660000E-04   6.806938216580000E-04   6.930352804220000E-04
   7.055841538189999E-04   7.183439277290000E-04   7.313181466140000E-04
   7.445104145090000E-04   7.579243960160000E-04   7.715638173280001E-04
   7.854324672610000E-04   7.995341983070000E-04   8.138729277040000E-04
   8.284526385250000E-04   8.432773807820000E-04   8.583512725560000E-04
   8.736785011350001E-04   8.892633241820000E-04   9.051100709130000E-04
   9.212231433060000E-04   9.376070173170000E-04   9.542662441280000E-04
   9.712054514080000E-04   9.884293446030001E-04   1.005942708240000E-03
   1.023750407250000E-03   1.041857388330000E-03   1.060268681320000E-03
   1.078989400580000E-03   1.098024746430000E-03   1.117380006600000E-03
   1.137060557660000E-03   1.157071866570000E-03   1.177419492140000E-03
   1.198109086640000E-03   1.219146397290000E-03   1.240537267940000E-03
   1.262287640620000E-03   1.284403557260000E-03   1.306891161300000E-03
   1.329756699440000E-03   1.353006523370000E-03   1.376647091520000E-03
   1.400684970870000E-03   1.425126838760000E-03   1.449979484760000E-03
   1.475249812540000E-03   1.500944841800000E-03   1.527071710210000E-03
   1.553637675400000E-03   1.580650116970000E-03   1.608116538570000E-03
   1.636044569920000E-03   1.664441969000000E-03   1.693316624140000E-03
   1.722676556280000E-03   1.752529921140000E-03   1.782885011510000E-03
   1.813750259560000E-03   1.845134239170000E-03   1.877045668300000E-03
   1.909493411460000E-03   1.942486482110000E-03   1.976034045200000E-03
   2.010145419720000E-03   2.044830081280000E-03   2.080097664710000E-03
   2.115957966810000E-03   2.152420948980000E-03   2.189496740090000E-03
   2.227195639190000E-03   2.265528118440000E-03   2.304504826000000E-03
   2.344136588990000E-03   2.384434416480000E-03   2.425409502570000E-03
   2.467073229500000E-03   2.509437170790000E-03   2.552513094470000E-03
   2.596312966350000E-03   2.640848953360000E-03   2.686133426870000E-03
   2.732178966210000E-03   2.778998362100000E-03   2.826604620220000E-03
   2.875010964840000E-03   2.924230842490000E-03   2.974277925660000E-03
   3.025166116640000E-03   3.076909551370000E-03   3.129522603370000E-03
   3.183019887700000E-03   3.237416265060000E-03   3.292726845910000E-03
   3.348966994660000E-03   3.406152333930000E-03   3.464298748910000E-03
   3.523422391740000E-03   3.583539686060000E-03   3.644667331480000E-03
   3.706822308300000E-03   3.770021882200000E-03   3.834283609030000E-03
   3.899625339660000E-03   3.966065225000000E-03   4.033621721010000E-03
   4.102313593820000E-03   4.172159924930000E-03   4.243180116550000E-03
   4.315393896990000E-03   4.388821326070000E-03   4.463482800790000E-03
   4.539399060920000E-03   4.616591194800000E-03   4.695080645180000E-03
   4.774889215200000E-03   4.856039074410000E-03   4.938552764970000E-03
   5.022453207870000E-03   5.107763709340000E-03   5.194507967280000E-03
   5.282710077870000E-03   5.372394542280000E-03   5.463586273430000E-03
   5.556310602940000E-03   5.650593288170000E-03   5.746460519350000E-03
   5.843938926900000E-03   5.943055588760000E-03   6.043838038000000E-03
   6.146314270370000E-03   6.250512752160000E-03   6.356462428060000E-03
   6.464192729220000E-03   6.573733581420000E-03   6.685115413360000E-03
   6.798369165170000E-03   6.913526296960000E-03   7.030618797540000E-03
   7.149679193380000E-03   7.270740557560000E-03   7.393836519030000E-03
   7.519001271900000E-03   7.646269584950000E-03   7.775676811320000E-03
   7.907258898300001E-03   8.041052397300000E-03   8.177094474039999E-03
   8.315422918879999E-03   8.456076157260000E-03   8.599093260440000E-03
   8.744513956300000E-03   8.892378640419999E-03   9.042728387280000E-03
   9.195604961650001E-03   9.351050830240000E-03   9.509109173460000E-03
   9.669823897410000E-03   9.833239646120000E-03   9.999401813880000E-03
   1.016835655790000E-02   1.034015081120000E-02   1.051483229550000E-02
   1.069244953450000E-02   1.087305186760000E-02   1.105668946310000E-02
   1.124341333270000E-02   1.143327534530000E-02   1.162632824170000E-02
   1.182262564880000E-02   1.202222209500000E-02   1.222517302500000E-02
   1.243153481540000E-02   1.264136479020000E-02   1.285472123690000E-02
   1.307166342250000E-02   1.329225161020000E-02   1.351654707580000E-02
   1.374461212520000E-02   1.397651011110000E-02   1.421230545120000E-02
   1.445206364570000E-02   1.469585129550000E-02   1.494373612120000E-02
   1.519578698120000E-02   1.545207389120000E-02   1.571266804370000E-02
   1.597764182760000E-02   1.624706884840000E-02   1.652102394880000E-02
   1.679958322910000E-02   1.708282406870000E-02   1.737082514740000E-02
   1.766366646740000E-02   1.796142937540000E-02   1.826419658520000E-02
   1.857205220080000E-02   1.888508173950000E-02   1.920337215610000E-02
   1.952701186660000E-02   1.985609077300000E-02   2.019070028820000E-02
   2.053093336150000E-02   2.087688450420000E-02   2.122864981610000E-02
   2.158632701210000E-02   2.195001544920000E-02   2.231981615430000E-02
   2.269583185230000E-02   2.307816699430000E-02   2.346692778700000E-02
   2.386222222210000E-02   2.426416010600000E-02   2.467285309080000E-02
   2.508841470490000E-02   2.551096038480000E-02   2.594060750700000E-02
   2.637747542070000E-02   2.682168548090000E-02   2.727336108210000E-02
   2.773262769270000E-02   2.819961288970000E-02   2.867444639420000E-02
   2.915726010740000E-02   2.964818814740000E-02   3.014736688630000E-02
   3.065493498800000E-02   3.117103344690000E-02   3.169580562690000E-02
   3.222939730170000E-02   3.277195669440000E-02   3.332363451950000E-02
   3.388458402440000E-02   3.445496103200000E-02   3.503492398410000E-02
   3.562463398510000E-02   3.622425484730000E-02   3.683395313570000E-02
   3.745389821510000E-02   3.808426229620000E-02   3.872522048440000E-02
   3.937695082770000E-02   4.003963436640000E-02   4.071345518360000E-02
   4.139860045610000E-02   4.209526050640000E-02   4.280362885560000E-02
   4.352390227740000E-02   4.425628085230000E-02   4.500096802350000E-02
   4.575817065330000E-02   4.652809908070000E-02   4.731096717960000E-02
   4.810699241840000E-02   4.891639592040000E-02   4.973940252500000E-02
   5.057624085060000E-02   5.142714335750000E-02   5.229234641310000E-02
   5.317209035710000E-02   5.406661956850000E-02   5.497618253330000E-02
   5.590103191380000E-02   5.684142461860000E-02   5.779762187390000E-02
   5.876988929610000E-02   5.975849696590000E-02   6.076371950280000E-02
   6.178583614180000E-02   6.282513081070000E-02   6.388189220920000E-02
   6.495641388880000E-02   6.604899433490000E-02   6.715993704879999E-02
   6.828955063309999E-02   6.943814887650000E-02   7.060605084139999E-02
   7.179358095259999E-02   7.300106908720000E-02   7.422885066640000E-02
   7.547726674840000E-02   7.674666412349999E-02   7.803739541030000E-02
   7.934981915360000E-02   8.068429992380000E-02   8.204120841890000E-02
   8.342092156630000E-02   8.482382262880001E-02   8.625030131000000E-02
   8.770075386329999E-02   8.917558320129999E-02   9.067519900850000E-02
   9.220001785440000E-02   9.375046330960000E-02   9.532696606330000E-02
   9.692996404320001E-02   9.855990253680000E-02   1.002172343150000E-01
   1.019024197590000E-01   1.036159269860000E-01   1.053582319820000E-01
   1.071298187310000E-01   1.089311793520000E-01   1.107628142350000E-01
   1.126252321790000E-01   1.145189505350000E-01   1.164444953460000E-01
   1.184024015000000E-01   1.203932128720000E-01   1.224174824770000E-01
   1.244757726260000E-01   1.265686550800000E-01   1.286967112070000E-01
   1.308605321490000E-01   1.330607189800000E-01   1.352978828780000E-01
   1.375726452920000E-01   1.398856381140000E-01   1.422375038580000E-01
   1.446288958350000E-01   1.470604783350000E-01   1.495329268140000E-01
   1.520469280790000E-01   1.546031804800000E-01   1.572023941040000E-01
   1.598452909700000E-01   1.625326052340000E-01   1.652650833900000E-01
   1.680434844760000E-01   1.708685802890000E-01   1.737411555960000E-01
   1.766620083520000E-01   1.796319499240000E-01   1.826518053160000E-01
   1.857224133960000E-01   1.888446271290000E-01   1.920193138170000E-01
   1.952473553390000E-01   1.985296483940000E-01   2.018671047500000E-01
   2.052606515000000E-01   2.087112313180000E-01   2.122198027200000E-01
   2.157873403330000E-01   2.194148351610000E-01   2.231032948660000E-01
   2.268537440430000E-01   2.306672245080000E-01   2.345447955860000E-01
   2.384875344050000E-01   2.424965361940000E-01   2.465729145930000E-01
   2.507178019530000E-01   2.549323496600000E-01   2.592177284480000E-01
   2.635751287280000E-01   2.680057609160000E-01   2.725108557730000E-01
   2.770916647430000E-01   2.817494603010000E-01   2.864855363110000E-01
   2.913012083780000E-01   2.961978142220000E-01   3.011767140410000E-01
   3.062392908950000E-01   3.113869510880000E-01   3.166211245600000E-01
   3.219432652800000E-01   3.273548516560000E-01   3.328573869400000E-01
   3.384523996490000E-01   3.441414439910000E-01   3.499261002920000E-01
   3.558079754380000E-01   3.617887033210000E-01   3.678699452920000E-01
   3.740533906260000E-01   3.803407569840000E-01   3.867337908990000E-01
   3.932342682540000E-01   3.998439947790000E-01   4.065648065510000E-01
   4.133985705070000E-01   4.203471849580000E-01   4.274125801190000E-01
   4.345967186450000E-01   4.419015961770000E-01   4.493292418940000E-01
   4.568817190790000E-01   4.645611256910000E-01   4.723695949470000E-01
   4.803092959180000E-01   4.883824341260000E-01   4.965912521620000E-01
   5.049380303070000E-01   5.134250871620000E-01   5.220547802990000E-01
   5.308295069100000E-01   5.397517044750000E-01   5.488238514410000E-01
   5.580484679050000E-01   5.674281163220000E-01   5.769654022089999E-01
   5.866629748730000E-01   5.965235281480000E-01   6.065498011390000E-01
   6.167445789860000E-01   6.271106936380000E-01   6.376510246370000E-01
   6.483684999220000E-01   6.592660966370000E-01   6.703468419630000E-01
   6.816138139560000E-01   6.930701424030000E-01   7.047190096910000E-01
   7.165636516900000E-01   7.286073586570000E-01   7.408534761420000E-01
   7.533054059230000E-01   7.659666069510001E-01   7.788405963050000E-01
   7.919309501789999E-01   8.052413048640000E-01   8.187753577680000E-01
   8.325368684360001E-01   8.465296595990000E-01   8.607576182340000E-01
   8.752246966420000E-01   8.899349135490000E-01   9.048923552220000E-01
   9.201011766010000E-01   9.355656024580000E-01   9.512899285640000E-01
   9.672785228900000E-01   9.835358268150000E-01   1.000066356360000E+00
   1.016874703450000E+00   1.033965537170000E+00   1.051343605090000E+00
   1.069013734560000E+00   1.086980834060000E+00   1.105249894580000E+00
   1.123825990960000E+00   1.142714283350000E+00   1.161920018630000E+00
   1.181448531840000E+00   1.201305247690000E+00   1.221495682070000E+00
   1.242025443560000E+00   1.262900235010000E+00   1.284125855100000E+00
   1.305708199970000E+00   1.327653264860000E+00   1.349967145760000E+00
   1.372656041120000E+00   1.395726253540000E+00   1.419184191580000E+00
   1.443036371480000E+00   1.467289418990000E+00   1.491950071230000E+00
   1.517025178540000E+00   1.542521706390000E+00   1.568446737310000E+00
   1.594807472860000E+00   1.621611235650000E+00   1.648865471330000E+00
   1.676577750690000E+00   1.704755771780000E+00   1.733407362010000E+00
   1.762540480320000E+00   1.792163219440000E+00   1.822283808110000E+00
   1.852910613340000E+00   1.884052142780000E+00   1.915717047050000E+00
   1.947914122160000E+00   1.980652311950000E+00   2.013940710580000E+00
   2.047788565040000E+00   2.082205277720000E+00   2.117200409040000E+00
   2.152783680100000E+00   2.188964975370000E+00   2.225754345450000E+00
   2.263162009830000E+00   2.301198359780000E+00   2.339873961190000E+00
   2.379199557540000E+00   2.419186072850000E+00   2.459844614750000E+00
   2.501186477540000E+00   2.543223145330000E+00   2.585966295250000E+00
   2.629427800670000E+00   2.673619734510000E+00   2.718554372580000E+00
   2.764244197040000E+00   2.810701899770000E+00   2.857940386010000E+00
   2.905972777860000E+00   2.954812417950000E+00   3.004472873170000E+00
   3.054967938400000E+00   3.106311640390000E+00   3.158518241590000E+00
   3.211602244190000E+00   3.265578394070000E+00   3.320461684950000E+00
   3.376267362560000E+00   3.433010928820000E+00   3.490708146200000E+00
   3.549375042080000E+00   3.609027913200000E+00   3.669683330170000E+00
   3.731358142130000E+00   3.794069481350000E+00   3.857834768050000E+00
   3.922671715230000E+00   3.988598333570000E+00   4.055632936440000E+00
   4.123794144980000E+00   4.193100893320000E+00   4.263572433770000E+00
   4.335228342210000E+00   4.408088523530000E+00   4.482173217120000E+00
   4.557503002550000E+00   4.634098805240000E+00   4.711981902290000E+00
   4.791173928410000E+00   4.871696881880000E+00   4.953573130720000E+00
   5.036825418840000E+00   5.121476872420000E+00   5.207551006290000E+00
   5.295071730500000E+00   5.384063356920000E+00   5.474550606010000E+00
   5.566558613700000E+00   5.660112938370000E+00   5.755239567930000E+00
   5.851964927060000E+00   5.950315884520000E+00   6.050319760670000E+00
   6.152004335010000E+00   6.255397853890000E+00   6.360529038420000E+00
   6.467427092360000E+00   6.576121710320000E+00   6.686643085940000E+00
   6.799021920310000E+00   6.913289430500000E+00   7.029477358220000E+00
   7.147617978630000E+00   7.267744109350000E+00   7.389889119510000E+00
   7.514086939060000E+00   7.640372068210000E+00   7.768779586950000E+00
   7.899345164880000E+00   8.032105071049999E+00   8.167096184060000E+00
   8.304356002320000E+00   8.443922654440000E+00   8.585834909820001E+00
   8.730132189450000E+00   8.876854576830000E+00   9.026042829140000E+00
   9.177738388500000E+00   9.331983393550001E+00   9.488820691110000E+00
   9.648293848110001E+00   9.810447163679999E+00   9.975325681450000E+00
   1.014297520210000E+01   1.031344229590000E+01   1.048677431600000E+01
   1.066301941140000E+01   1.084222654000000E+01   1.102444548280000E+01
   1.120972685750000E+01   1.139812213210000E+01   1.158968363990000E+01
   1.178446459370000E+01   1.198251910060000E+01   1.218390217690000E+01
   1.238866976380000E+01   1.259687874240000E+01   1.280858694990000E+01
   1.302385319540000E+01   1.324273727660000E+01   1.346529999600000E+01
   1.369160317800000E+01   1.392170968600000E+01   1.415568344000000E+01
   1.439358943430000E+01   1.463549375520000E+01   1.488146360010000E+01
   1.513156729550000E+01   1.538587431620000E+01   1.564445530480000E+01
   1.590738209080000E+01   1.617472771130000E+01   1.644656643060000E+01
   1.672297376130000E+01   1.700402648490000E+01   1.728980267340000E+01
   1.758038171090000E+01   1.787584431570000E+01   1.817627256270000E+01
   1.848174990610000E+01   1.879236120260000E+01   1.910819273520000E+01
   1.942933223690000E+01   1.975586891520000E+01   2.008789347670000E+01
   2.042549815280000E+01   2.076877672450000E+01   2.111782454930000E+01
   2.147273858730000E+01   2.183361742770000E+01   2.220056131730000E+01
   2.257367218700000E+01   2.295305368130000E+01   2.333881118630000E+01
   2.373105185950000E+01   2.412988465890000E+01   2.453542037420000E+01
   2.494777165660000E+01   2.536705305100000E+01   2.579338102700000E+01
   2.622687401180000E+01   2.666765242290000E+01   2.711583870170000E+01
   2.757155734710000E+01   2.803493495060000E+01   2.850610023120000E+01
   2.898518407130000E+01   2.947231955260000E+01   2.996764199370000E+01
   3.047128898740000E+01   3.098340043890000E+01   3.150411860470000E+01
   3.203358813200000E+01   3.257195609910000E+01   3.311937205610000E+01
   3.367598806660000E+01   3.424195874960000E+01   3.481744132290000E+01
   3.540259564650000E+01   3.599758426690000E+01   3.660257246270000E+01
   3.721772829000000E+01   3.784322262940000E+01   3.847922923330000E+01
   3.912592477430000E+01   3.978348889420000E+01   4.045210425390000E+01
   4.113195658430000E+01   4.182323473760000E+01   4.252613073990000E+01
   4.324083984470000E+01   4.396756058680000E+01   4.470649483780000E+01
   4.545784786200000E+01   4.622182837330000E+01   4.699864859350000E+01
   4.778852431090000E+01   4.859167494070000E+01   4.940832358520000E+01
   5.023869709670000E+01   5.108302613980000E+01   5.194154525570000E+01
   5.281449292760000E+01   5.370211164640000E+01   5.460464797860000E+01
   5.552235263470000E+01   5.645548053840000E+01   5.740429089790000E+01
   5.836904727780000E+01   5.935001767220000E+01   6.034747457910000E+01
   6.136169507640000E+01   6.239296089840000E+01   6.344155851450000E+01
   6.450777920860000E+01   6.559191916000000E+01   6.669427952549999E+01
   6.781516652360000E+01   6.895489151890000E+01   7.011377110900000E+01
   7.129212721240000E+01   7.249028715780000E+01   7.370858377499999E+01
   7.494735548769999E+01   7.620694640710001E+01   7.748770642770000E+01
   7.878999132430000E+01   8.011416285110001E+01   8.146058884209999E+01
   8.282964331309999E+01   8.422170656590001E+01   8.563716529360001E+01
   8.707641268840000E+01   8.853984855040000E+01   9.002787939900000E+01
   9.154091858560000E+01   9.307938640870000E+01   9.464371023030000E+01
   9.623432459490000E+01   9.785167135010001E+01   9.949619976910000E+01
   1.011683666760000E+02   1.028686365730000E+02   1.045974817670000E+02
   1.063553825040000E+02   1.081428271030000E+02   1.099603120850000E+02
   1.118083423210000E+02   1.136874311640000E+02   1.155981005940000E+02
   1.175408813660000E+02   1.195163131540000E+02   1.215249447010000E+02
   1.235673339730000E+02   1.256440483140000E+02   1.277556646030000E+02
   1.299027694120000E+02   1.320859591740000E+02   1.343058403450000E+02
   1.365630295720000E+02   1.388581538670000E+02   1.411918507800000E+02
   1.435647685730000E+02   1.459775664070000E+02   1.484309145190000E+02
   1.509254944090000E+02   1.534619990330000E+02   1.560411329920000E+02
   1.586636127290000E+02   1.613301667260000E+02   1.640415357110000E+02
   1.667984728580000E+02   1.696017440030000E+02   1.724521278480000E+02
   1.753504161860000E+02   1.782974141150000E+02   1.812939402650000E+02
   1.843408270240000E+02   1.874389207680000E+02   1.905890820990000E+02
   1.937921860820000E+02   1.970491224900000E+02   2.003607960460000E+02
    </PP_R>
    <PP_RAB>
   8.940019270140000E-07   9.090268187660000E-07   9.243042238120000E-07
   9.398383859750000E-07   9.556336203989999E-07   9.716943147519999E-07
   9.880249304400001E-07   1.004630003850000E-06   1.021514147610000E-06
   1.038682051870000E-06   1.056138485600000E-06   1.073888297920000E-06
   1.091936419460000E-06   1.110287863680000E-06   1.128947728340000E-06
   1.147921196850000E-06   1.167213539750000E-06   1.186830116130000E-06
   1.206776375170000E-06   1.227057857630000E-06   1.247680197390000E-06
   1.268649123010000E-06   1.289970459310000E-06   1.311650129040000E-06
   1.333694154460000E-06   1.356108659050000E-06   1.378899869220000E-06
   1.402074115990000E-06   1.425637836810000E-06   1.449597577300000E-06
   1.473959993120000E-06   1.498731851740000E-06   1.523920034400000E-06
   1.549531537980000E-06   1.575573476950000E-06   1.602053085350000E-06
   1.628977718800000E-06   1.656354856530000E-06   1.684192103490000E-06
   1.712497192410000E-06   1.741277986010000E-06   1.770542479140000E-06
   1.800298801010000E-06   1.830555217450000E-06   1.861320133230000E-06
   1.892602094340000E-06   1.924409790430000E-06   1.956752057160000E-06
   1.989637878720000E-06   2.023076390260000E-06   2.057076880470000E-06
   2.091648794150000E-06   2.126801734840000E-06   2.162545467460000E-06
   2.198889921060000E-06   2.235845191560000E-06   2.273421544540000E-06
   2.311629418130000E-06   2.350479425860000E-06   2.389982359660000E-06
   2.430149192810000E-06   2.470991083030000E-06   2.512519375560000E-06
   2.554745606280000E-06   2.597681504990000E-06   2.641338998610000E-06
   2.685730214480000E-06   2.730867483790000E-06   2.776763344970000E-06
   2.823430547150000E-06   2.870882053740000E-06   2.919131046040000E-06
   2.968190926840000E-06   3.018075324200000E-06   3.068798095230000E-06
   3.120373329910000E-06   3.172815355020000E-06   3.226138738130000E-06
   3.280358291640000E-06   3.335489076870000E-06   3.391546408300000E-06
   3.448545857760000E-06   3.506503258790000E-06   3.565434711060000E-06
   3.625356584790000E-06   3.686285525320000E-06   3.748238457760000E-06
   3.811232591640000E-06   3.875285425760000E-06   3.940414752960000E-06
   4.006638665160000E-06   4.073975558310000E-06   4.142444137520000E-06
   4.212063422310000E-06   4.282852751790000E-06   4.354831790130000E-06
   4.428020531970000E-06   4.502439307990000E-06   4.578108790540000E-06
   4.655049999420000E-06   4.733284307680000E-06   4.812833447560000E-06
   4.893719516580000E-06   4.975964983590000E-06   5.059592695100000E-06
   5.144625881550000E-06   5.231088163830000E-06   5.319003559790000E-06
   5.408396490940000E-06   5.499291789230000E-06   5.591714703930000E-06
   5.685690908670000E-06   5.781246508550000E-06   5.878408047420000E-06
   5.977202515210000E-06   6.077657355470000E-06   6.179800472960000E-06
   6.283660241430000E-06   6.389265511480000E-06   6.496645618590000E-06
   6.605830391260000E-06   6.716850159290000E-06   6.829735762220000E-06
   6.944518557890000E-06   7.061230431150000E-06   7.179903802710000E-06
   7.300571638160000E-06   7.423267457120000E-06   7.548025342550000E-06
   7.674879950219999E-06   7.803866518340000E-06   7.935020877340000E-06
   8.068379459820001E-06   8.203979310710000E-06   8.341858097480000E-06
   8.482054120710000E-06   8.624606324610000E-06   8.769554307959999E-06
   8.916938335000001E-06   9.066799346690001E-06   9.219178972050000E-06
   9.374119539750000E-06   9.531664089809999E-06   9.691856385640000E-06
   9.854740926110000E-06   1.002036295800000E-05   1.018876848840000E-05
   1.036000429790000E-05   1.053411795290000E-05   1.071115781960000E-05
   1.089117307670000E-05   1.107421372970000E-05   1.126033062440000E-05
   1.144957546120000E-05   1.164200080920000E-05   1.183766012110000E-05
   1.203660774810000E-05   1.223889895470000E-05   1.244458993400000E-05
   1.265373782400000E-05   1.286640072250000E-05   1.308263770390000E-05
   1.330250883550000E-05   1.352607519390000E-05   1.375339888250000E-05
   1.398454304800000E-05   1.421957189880000E-05   1.445855072210000E-05
   1.470154590240000E-05   1.494862494010000E-05   1.519985646960000E-05
   1.545531027930000E-05   1.571505733000000E-05   1.597916977560000E-05
   1.624772098210000E-05   1.652078554900000E-05   1.679843932910000E-05
   1.708075945050000E-05   1.736782433710000E-05   1.765971373100000E-05
   1.795650871440000E-05   1.825829173250000E-05   1.856514661560000E-05
   1.887715860330000E-05   1.919441436760000E-05   1.951700203700000E-05
   1.984501122140000E-05   2.017853303650000E-05   2.051766012940000E-05
   2.086248670430000E-05   2.121310854850000E-05   2.156962305930000E-05
   2.193212927080000E-05   2.230072788130000E-05   2.267552128200000E-05
   2.305661358430000E-05   2.344411064980000E-05   2.383812011900000E-05
   2.423875144150000E-05   2.464611590640000E-05   2.506032667300000E-05
   2.548149880270000E-05   2.590974929030000E-05   2.634519709710000E-05
   2.678796318360000E-05   2.723817054330000E-05   2.769594423650000E-05
   2.816141142570000E-05   2.863470141030000E-05   2.911594566270000E-05
   2.960527786500000E-05   3.010283394600000E-05   3.060875211890000E-05
   3.112317291970000E-05   3.164623924640000E-05   3.217809639870000E-05
   3.271889211800000E-05   3.326877662880000E-05   3.382790268030000E-05
   3.439642558910000E-05   3.497450328160000E-05   3.556229633890000E-05
   3.615996804040000E-05   3.676768441010000E-05   3.738561426180000E-05
   3.801392924680000E-05   3.865280390100000E-05   3.930241569370000E-05
   3.996294507680000E-05   4.063457553500000E-05   4.131749363650000E-05
   4.201188908530000E-05   4.271795477350000E-05   4.343588683480000E-05
   4.416588469960000E-05   4.490815114960000E-05   4.566289237490000E-05
   4.643031803050000E-05   4.721064129530000E-05   4.800407893060000E-05
   4.881085134100000E-05   4.963118263510000E-05   5.046530068790000E-05
   5.131343720430000E-05   5.217582778330000E-05   5.305271198320000E-05
   5.394433338860000E-05   5.485093967800000E-05   5.577278269230000E-05
   5.671011850470000E-05   5.766320749260000E-05   5.863231440880000E-05
   5.961770845610000E-05   6.061966336130000E-05   6.163845745160001E-05
   6.267437373210000E-05   6.372769996380000E-05   6.479872874410000E-05
   6.588775758800000E-05   6.699508901039999E-05   6.812103061060000E-05
   6.926589515730001E-05   7.043000067579999E-05   7.161367053629999E-05
   7.281723354350000E-05   7.404102402819999E-05   7.528538194020000E-05