<UPF version="2.0.1">
  <PP_INFO>
    Generated by new atomic code, or converted to UPF format
    Author: 
    Generation date: 
    Pseudopotential type: US
    Element: Co
    Functional: SLA  PZ   NOGX NOGC
    Suggested minimum cutoff for wavefunctions:   0. Ry
    Suggested minimum cutoff for charge density:   0. Ry
    The Pseudo was generated with a Non-Relativistic Calculation
    L component and cutoff radius for Local Potential:  0   0.0000
    Valence configuration: 
    nl pn  l   occ       Rcut    Rcut US       E pseu
    3S  1  0  2.00      0.000      0.000     0.000000
    3P  2  1  6.00      0.000      0.000     0.000000
    3D  3  2  7.00      0.000      0.000     0.000000
    4S  1  0  1.00      0.000      0.000     0.000000
    4P  2  1  0.00      0.000      0.000     0.000000
    Generation configuration: not available.
  </PP_INFO>
    <!-- END OF HUMAN READABLE SECTION -->
  <PP_HEADER generated="Generated by new atomic code, or converted to UPF format" author="" date="" comment="" element="Co" pseudo_type="US" relativistic="no" is_ultrasoft="true" is_paw="false" is_coulomb="false" has_so="false" has_wfc="false" has_gipaw="false" paw_as_gipaw="false" core_correction="true" functional="SLA  PZ   NOGX NOGC" z_valence="17.000000000000000" total_psenergy="-296.96453334199998" wfc_cutoff="0.0000000000000000" rho_cutoff="0.0000000000000000" l_max="2" l_max_rho="0" l_local="0" mesh_size="863" number_of_wfc="5" number_of_proj="6"/>
  <PP_MESH>
    <PP_R>
   0.000000000000000E+00   1.569289225180000E-06   3.165403259550000E-06
   4.788800635780000E-06   6.439947724510000E-06   8.119318868370000E-06
   9.827396518179999E-06   1.156467137160000E-05   1.333164251410000E-05
   1.512881756220000E-05   1.695671280960000E-05   1.881585337530000E-05
   2.070677335420000E-05   2.263001597130000E-05   2.458613373670000E-05
   2.657568860540000E-05   2.859925213790000E-05   3.065740566490000E-05
   3.275074045400000E-05   3.487985787990000E-05   3.704536959670000E-05
   3.924789771410000E-05   4.148807497580000E-05   4.376654494140000E-05
   4.608396217120000E-05   4.844099241430000E-05   5.083831279990000E-05
   5.327661203170000E-05   5.575659058600000E-05   5.827896091260000E-05
   6.084444763970000E-05   6.345378778200000E-05   6.610773095230000E-05
   6.880703957729999E-05   7.155248911600000E-05   7.434486828300000E-05
   7.718497927480000E-05   8.007363800030000E-05   8.301167431520000E-05
   8.599993226060000E-05   8.903927030510000E-05   9.213056159170000E-05
   9.527469418870000E-05   9.847257134430000E-05   1.017251117470000E-04
   1.050332497890000E-04   1.083979358330000E-04   1.118201364900000E-04
   1.153008348900000E-04   1.188410309730000E-04   1.224417417660000E-04
   1.261040016850000E-04   1.298288628270000E-04   1.336173952710000E-04
   1.374706873900000E-04   1.413898461610000E-04   1.453759974800000E-04
   1.494302864940000E-04   1.535538779200000E-04   1.577479563860000E-04
   1.620137267700000E-04   1.663524145460000E-04   1.707652661340000E-04
   1.752535492620000E-04   1.798185533250000E-04   1.844615897620000E-04
   1.891839924270000E-04   1.939871179750000E-04   1.988723462510000E-04
   2.038410806870000E-04   2.088947487030000E-04   2.140348021210000E-04
   2.192627175780000E-04   2.245799969540000E-04   2.299881678010000E-04
   2.354887837800000E-04   2.410834251120000E-04   2.467736990310000E-04
   2.525612402400000E-04   2.584477113890000E-04   2.644348035470000E-04
   2.705242366900000E-04   2.767177601950000E-04   2.830171533390000E-04
   2.894242258180000E-04   2.959408182590000E-04   3.025688027540000E-04
   3.093100833930000E-04   3.161665968160000E-04   3.231403127680000E-04
   3.302332346600000E-04   3.374474001540000E-04   3.447848817390000E-04
   3.522477873310000E-04   3.598382608790000E-04   3.675584829780000E-04
   3.754106715010000E-04   3.833970822270000E-04   3.915200094990000E-04
   3.997817868750000E-04   4.081847878060000E-04   4.167314263110000E-04
   4.254241576730000E-04   4.342654791460000E-04   4.432579306700000E-04
   4.524040956030000E-04   4.617066014620000E-04   4.711681206750000E-04
   4.807913713540000E-04   4.905791180740000E-04   5.005341726640000E-04
   5.106593950180000E-04   5.209576939180001E-04   5.314320278650000E-04
   5.420854059330000E-04   5.529208886310000E-04   5.639415887830000E-04
   5.751506724240000E-04   5.865513597059999E-04   5.981469258269999E-04
   6.099407019670000E-04   6.219360762510000E-04   6.341364947170000E-04
   6.465454623100000E-04   6.591665438850000E-04   6.720033652370001E-04
   6.850596141330000E-04   6.983390413840000E-04   7.118454619100000E-04
   7.255827558450000E-04   7.395548696490000E-04   7.537658172380000E-04
   7.682196811430000E-04   7.829206136790000E-04   7.978728381410000E-04
   8.130806500120001E-04   8.285484182020000E-04   8.442805863030000E-04
   8.602816738620000E-04   8.765562776810000E-04   8.931090731390000E-04
   9.099448155350000E-04   9.270683414500000E-04   9.444845701430000E-04
   9.621985049590000E-04   9.802152347700001E-04   9.985399354320000E-04
   1.017177871280000E-03   1.036134396620000E-03   1.055414957320000E-03
   1.075025092290000E-03   1.094970435140000E-03   1.115256715800000E-03
   1.135889762120000E-03   1.156875501560000E-03   1.178219962940000E-03
   1.199929278090000E-03   1.222009683680000E-03   1.244467523000000E-03
   1.267309247730000E-03   1.290541419870000E-03   1.314170713580000E-03
   1.338203917070000E-03   1.362647934650000E-03   1.387509788580000E-03
   1.412796621220000E-03   1.438515696970000E-03   1.464674404420000E-03
   1.491280258470000E-03   1.518340902460000E-03   1.545864110400000E-03
   1.573857789160000E-03   1.602329980790000E-03   1.631288864810000E-03
   1.660742760530000E-03   1.690700129490000E-03   1.721169577860000E-03
   1.752159858930000E-03   1.783679875610000E-03   1.815738682980000E-03
   1.848345490920000E-03   1.881509666740000E-03   1.915240737850000E-03
   1.949548394560000E-03   1.984442492770000E-03   2.019933056900000E-03
   2.056030282680000E-03   2.092744540170000E-03   2.130086376640000E-03
   2.168066519700000E-03   2.206695880300000E-03   2.245985555900000E-03
   2.285946833680000E-03   2.326591193720000E-03   2.367930312380000E-03
   2.409976065580000E-03   2.452740532250000E-03   2.496235997800000E-03
   2.540474957630000E-03   2.585470120730000E-03   2.631234413350000E-03
   2.677780982690000E-03   2.725123200670000E-03   2.773274667790000E-03
   2.822249217040000E-03   2.872060917860000E-03   2.922724080190000E-03
   2.974253258570000E-03   3.026663256340000E-03   3.079969129880000E-03
   3.134186192940000E-03   3.189330021020000E-03   3.245416455880000E-03
   3.302461610070000E-03   3.360481871560000E-03   3.419493908450000E-03
   3.479514673740000E-03   3.540561410260000E-03   3.602651655540000E-03
   3.665803246900000E-03   3.730034326590000E-03   3.795363346940000E-03
   3.861809075720000E-03   3.929390601510000E-03   3.998127339150000E-03
   4.068039035400000E-03   4.139145774520000E-03   4.211467984120000E-03
   4.285026440950000E-03   4.359842276940000E-03   4.435936985240000E-03
   4.513332426370000E-03   4.592050834560000E-03   4.672114824070000E-03
   4.753547395740000E-03   4.836371943590000E-03   4.920612261480000E-03
   5.006292550040000E-03   5.093437423560000E-03   5.182071917070000E-03
   5.272221493550000E-03   5.363912051220000E-03   5.457169931010000E-03
   5.552021924110000E-03   5.648495279650000E-03   5.746617712560000E-03
   5.846417411530000E-03   5.947923047060000E-03   6.051163779780000E-03
   6.156169268730000E-03   6.262969679970000E-03   6.371595695190000E-03
   6.482078520540000E-03   6.594449895600000E-03   6.708742102480000E-03
   6.824987975140000E-03   6.943220908750000E-03   7.063474869360000E-03
   7.185784403600000E-03   7.310184648620000E-03   7.436711342220000E-03
   7.565400833070000E-03   7.696290091160000E-03   7.829416718450000E-03
   7.964818959630001E-03   8.102535713160001E-03   8.242606542399999E-03
   8.385071686969999E-03   8.529972074359999E-03   8.677349331660001E-03
   8.827245797480000E-03   8.979704534189999E-03   9.134769340230000E-03
   9.292484762720000E-03   9.452896110240000E-03   9.616049465879999E-03
   9.781991700440000E-03   9.950770485900000E-03   1.012243430920000E-02
   1.029703248590000E-02   1.047461517480000E-02   1.065523339190000E-02
   1.083893902540000E-02   1.102578485030000E-02   1.121582454380000E-02
   1.140911270060000E-02   1.160570484870000E-02   1.180565746530000E-02
   1.200902799270000E-02   1.221587485550000E-02   1.242625747680000E-02
   1.264023629530000E-02   1.285787278310000E-02   1.307922946300000E-02
   1.330436992630000E-02   1.353335885170000E-02   1.376626202310000E-02
   1.400314634920000E-02   1.424407988230000E-02   1.448913183790000E-02
   1.473837261470000E-02   1.499187381470000E-02   1.524970826390000E-02
   1.551195003320000E-02   1.577867445960000E-02   1.604995816770000E-02
   1.632587909230000E-02   1.660651650000000E-02   1.689195101250000E-02
   1.718226462960000E-02   1.747754075290000E-02   1.777786420940000E-02
   1.808332127630000E-02   1.839399970540000E-02   1.870998874870000E-02
   1.903137918360000E-02   1.935826333950000E-02   1.969073512390000E-02
   2.002889004940000E-02   2.037282526140000E-02   2.072263956590000E-02
   2.107843345770000E-02   2.144030914960000E-02   2.180837060130000E-02
   2.218272354990000E-02   2.256347553970000E-02   2.295073595340000E-02
   2.334461604340000E-02   2.374522896380000E-02   2.415268980300000E-02
   2.456711561660000E-02   2.498862546110000E-02   2.541734042810000E-02
   2.585338367920000E-02   2.629688048110000E-02   2.674795824180000E-02
   2.720674654740000E-02   2.767337719870000E-02   2.814798424980000E-02
   2.863070404610000E-02   2.912167526360000E-02   2.962103894880000E-02
   3.012893855940000E-02   3.064552000490000E-02   3.117093168930000E-02
   3.170532455320000E-02   3.224885211730000E-02   3.280167052650000E-02
   3.336393859490000E-02   3.393581785130000E-02   3.451747258540000E-02
   3.510906989540000E-02   3.571077973580000E-02   3.632277496620000E-02
   3.694523140090000E-02   3.757832785960000E-02   3.822224621880000E-02
   3.887717146360000E-02   3.954329174150000E-02   4.022079841590000E-02
   4.090988612140000E-02   4.161075281940000E-02   4.232359985560000E-02
   4.304863201700000E-02   4.378605759130000E-02   4.453608842660000E-02
   4.529893999230000E-02   4.607483144090000E-02   4.686398567090000E-02
   4.766662939120000E-02   4.848299318560000E-02   4.931331157990000E-02
   5.015782310820000E-02   5.101677038250000E-02   5.189040016180000E-02
   5.277896342280000E-02   5.368271543270000E-02   5.460191582190000E-02
   5.553682865890000E-02   5.648772252610000E-02   5.745487059690000E-02
   5.843855071420000E-02   5.943904547030000E-02   6.045664228790000E-02
   6.149163350290000E-02   6.254431644830000E-02   6.361499353949999E-02
   6.470397236130000E-02   6.581156575630000E-02   6.693809191460000E-02
   6.808387446540000E-02   6.924924256990000E-02   7.043453101570001E-02
   7.164008031320000E-02   7.286623679350000E-02   7.411335270760000E-02
   7.538178632780000E-02   7.667190205040000E-02   7.798407050090000E-02
   7.931866863970000E-02   8.067607987110000E-02   8.205669415310000E-02
   8.346090810940000E-02   8.488912514360000E-02   8.634175555470000E-02
   8.781921665540000E-02   8.932193289170000E-02   9.085033596479999E-02
   9.240486495540000E-02   9.398596644960000E-02   9.559409466710000E-02
   9.722971159230000E-02   9.889328710610000E-02   1.005852991220000E-01
   1.023062337210000E-01   1.040565852960000E-01   1.058368566880000E-01
   1.076475593350000E-01   1.094892134160000E-01   1.113623480040000E-01
   1.132675012140000E-01   1.152052203590000E-01   1.171760621080000E-01
   1.191805926470000E-01   1.212193878370000E-01   1.232930333860000E-01
   1.254021250110000E-01   1.275472686150000E-01   1.297290804540000E-01
   1.319481873220000E-01   1.342052267250000E-01   1.365008470670000E-01
   1.388357078340000E-01   1.412104797880000E-01   1.436258451530000E-01
   1.460824978190000E-01   1.485811435340000E-01   1.511225001100000E-01
   1.537072976300000E-01   1.563362786560000E-01   1.590101984440000E-01
   1.617298251590000E-01   1.644959400970000E-01   1.673093379100000E-01
   1.701708268310000E-01   1.730812289120000E-01   1.760413802550000E-01
   1.790521312540000E-01   1.821143468400000E-01   1.852289067270000E-01
   1.883967056690000E-01   1.916186537120000E-01   1.948956764610000E-01
   1.982287153400000E-01   2.016187278680000E-01   2.050666879280000E-01
   2.085735860530000E-01   2.121404297080000E-01   2.157682435770000E-01
   2.194580698610000E-01   2.232109685760000E-01   2.270280178570000E-01
   2.309103142680000E-01   2.348589731180000E-01   2.388751287800000E-01
   2.429599350190000E-01   2.471145653190000E-01   2.513402132260000E-01
   2.556380926860000E-01   2.600094383980000E-01   2.644555061640000E-01
   2.689775732530000E-01   2.735769387690000E-01   2.782549240180000E-01
   2.830128728970000E-01   2.878521522720000E-01   2.927741523740000E-01
   2.977802871990000E-01   3.028719949110000E-01   3.080507382610000E-01
   3.133180050010000E-01   3.186753083150000E-01   3.241241872520000E-01
   3.296662071710000E-01   3.353029601850000E-01   3.410360656250000E-01
   3.468671705020000E-01   3.527979499780000E-01   3.588301078530000E-01
   3.649653770470000E-01   3.712055201070000E-01   3.775523297030000E-01
   3.840076291510000E-01   3.905732729340000E-01   3.972511472350000E-01
   4.040431704770000E-01   4.109512938770000E-01   4.179775020060000E-01
   4.251238133570000E-01   4.323922809270000E-01   4.397849928060000E-01
   4.473040727780000E-01   4.549516809270000E-01   4.627300142650000E-01
   4.706413073560000E-01   4.786878329610000E-01   4.868719026920000E-01
   4.951958676720000E-01   5.036621192170000E-01   5.122730895170000E-01
   5.210312523360000E-01   5.299391237260000E-01   5.389992627450000E-01
   5.482142721960001E-01   5.575867993730000E-01   5.671195368220000E-01
   5.768152231140000E-01   5.866766436310000E-01   5.967066313690000E-01
   6.069080677499999E-01   6.172838834480000E-01   6.278370592350000E-01
   6.385706268340000E-01   6.494876697910000E-01   6.605913243610000E-01
   6.718847804100000E-01   6.833712823290000E-01   6.950541299680000E-01
   7.069366795820000E-01   7.190223447980000E-01   7.313145975940000E-01
   7.438169692970000E-01   7.565330515950000E-01   7.694664975730000E-01
   7.826210227610000E-01   7.960004061980001E-01   8.096084915220000E-01
   8.234491880730000E-01   8.375264720159999E-01   8.518443874810000E-01
   8.664070477280000E-01   8.812186363290000E-01   8.962834083650000E-01
   9.116056916550000E-01   9.271898879940000E-01   9.430404744200001E-01
   9.591620044990000E-01   9.755591096360000E-01   9.922365004010000E-01
   1.009198967890000E+00   1.026451385080000E+00   1.043998708270000E+00
   1.061845978460000E+00   1.079998322820000E+00   1.098460956180000E+00
   1.117239182480000E+00   1.136338396360000E+00   1.155764084650000E+00
   1.175521827970000E+00   1.195617302330000E+00   1.216056280780000E+00
   1.236844635050000E+00   1.257988337220000E+00   1.279493461460000E+00
   1.301366185800000E+00   1.323612793830000E+00   1.346239676580000E+00
   1.369253334310000E+00   1.392660378400000E+00   1.416467533240000E+00
   1.440681638170000E+00   1.465309649430000E+00   1.490358642170000E+00
   1.515835812480000E+00   1.541748479460000E+00   1.568104087320000E+00
   1.594910207520000E+00   1.622174540930000E+00   1.649904920070000E+00
   1.678109311330000E+00   1.706795817310000E+00   1.735972679070000E+00
   1.765648278560000E+00   1.795831141010000E+00   1.826529937360000E+00
   1.857753486800000E+00   1.889510759240000E+00   1.921810877930000E+00
   1.954663122080000E+00   1.988076929480000E+00   2.022061899300000E+00
   2.056627794740000E+00   2.091784545920000E+00   2.127542252700000E+00
   2.163911187570000E+00   2.200901798630000E+00   2.238524712550000E+00
   2.276790737690000E+00   2.315710867120000E+00   2.355296281840000E+00
   2.395558353990000E+00   2.436508650070000E+00   2.478158934300000E+00
   2.520521172020000E+00   2.563607533070000E+00   2.607430395340000E+00
   2.652002348270000E+00   2.697336196530000E+00   2.743444963660000E+00
   2.790341895810000E+00   2.838040465570000E+00   2.886554375810000E+00
   2.935897563640000E+00   2.986084204400000E+00   3.037128715750000E+00
   3.089045761770000E+00   3.141850257250000E+00   3.195557371880000E+00
   3.250182534670000E+00   3.305741438390000E+00   3.362250044040000E+00
   3.419724585430000E+00   3.478181573890000E+00   3.537637802990000E+00
   3.598110353340000E+00   3.659616597550000E+00   3.722174205160000E+00
   3.785801147770000E+00   3.850515704170000E+00   3.916336465590000E+00
   3.983282341060000E+00   4.051372562850000E+00   4.120626691950000E+00
   4.191064623740000E+00   4.262706593660000E+00   4.335573183080000E+00
   4.409685325150000E+00   4.485064310860000E+00   4.561731795120000E+00
   4.639709803030000E+00   4.719020736160000E+00   4.799687379010000E+00
   4.881732905530000E+00   4.965180885830000E+00   5.050055292890000E+00
   5.136380509480000E+00   5.224181335180000E+00   5.313482993460000E+00
   5.404311138950000E+00   5.496691864830000E+00   5.590651710290000E+00
   5.686217668180000E+00   5.783417192740000E+00   5.882278207530000E+00
   5.982829113390000E+00   6.085098796650000E+00   6.189116637420000E+00
   6.294912518010000E+00   6.402516831530000E+00   6.511960490620000E+00
   6.623274936310000E+00   6.736492147110000E+00   6.851644648110000E+00
   6.968765520410000E+00   7.087888410570000E+00   7.209047540280000E+00
   7.332277716230000E+00   7.457614340050000E+00   7.585093418530000E+00
   7.714751573950000E+00   7.846626054590000E+00   7.980754745420000E+00
   8.117176179039999E+00   8.255929546659999E+00   8.397054709470000E+00
   8.540592209970001E+00   8.686583283719999E+00   8.835069871130001E+00
   8.986094629529999E+00   9.139700945390000E+00   9.295932946850000E+00
   9.454835516339999E+00   9.616454303479999E+00   9.780835738240000E+00
   9.948027044200000E+00   1.011807625220000E+01   1.029103221410000E+01
   1.046694461680000E+01   1.064586399650000E+01   1.082784175330000E+01
   1.101293016590000E+01   1.120118240660000E+01   1.139265255660000E+01
   1.158739562160000E+01   1.178546754750000E+01   1.198692523650000E+01
   1.219182656360000E+01   1.240023039290000E+01   1.261219659490000E+01
   1.282778606320000E+01   1.304706073260000E+01   1.327008359650000E+01
   1.349691872490000E+01   1.372763128330000E+01   1.396228755090000E+01
   1.420095494000000E+01   1.444370201490000E+01   1.469059851230000E+01
   1.494171536080000E+01   1.519712470130000E+01   1.545689990800000E+01
   1.572111560940000E+01   1.598984770940000E+01   1.626317340960000E+01
   1.654117123130000E+01   1.682392103770000E+01   1.711150405740000E+01
   1.740400290750000E+01   1.770150161720000E+01   1.800408565220000E+01
   1.831184193900000E+01   1.862485889000000E+01   1.894322642890000E+01
   1.926703601650000E+01   1.959638067720000E+01   1.993135502520000E+01
   2.027205529220000E+01   2.061857935470000E+01   2.097102676250000E+01
   2.132949876690000E+01   2.169409834980000E+01   2.206493025380000E+01
   2.244210101170000E+01   2.282571897730000E+01   2.321589435660000E+01
   2.361273923950000E+01   2.401636763180000E+01   2.442689548820000E+01
   2.484444074540000E+01   2.526912335600000E+01   2.570106532310000E+01
   2.614039073530000E+01   2.658722580230000E+01   2.704169889120000E+01
   2.750394056330000E+01   2.797408361170000E+01   2.845226309930000E+01
   2.893861639790000E+01   2.943328322740000E+01   2.993640569590000E+01
   3.044812834090000E+01   3.096859817040000E+01   3.149796470520000E+01
   3.203638002220000E+01   3.258399879750000E+01   3.314097835160000E+01
   3.370747869380000E+01   3.428366256870000E+01   3.486969550290000E+01
   3.546574585220000E+01   3.607198485030000E+01   3.668858665810000E+01
   3.731572841320000E+01   3.795359028140000E+01   3.860235550800000E+01
   3.926221047070000E+01   3.993334473310000E+01   4.061595109910000E+01
   4.131022566830000E+01   4.201636789230000E+01   4.273458063200000E+01
   4.346507021630000E+01   4.420804650050000E+01   4.496372292730000E+01
   4.573231658810000E+01   4.651404828480000E+01   4.730914259390000E+01
   4.811782793050000E+01   4.894033661440000E+01   4.977690493630000E+01
   5.062777322620000E+01   5.149318592200000E+01   5.237339164000000E+01
   5.326864324640000E+01   5.417919792950000E+01   5.510531727420000E+01
   5.604726733650000E+01   5.700531872060000E+01   5.797974665600000E+01
   5.897083107710000E+01   5.997885670320000E+01   6.100411312050000E+01
   6.204689486540000E+01   6.310750150890000E+01   6.418623774280000E+01
   6.528341346710000E+01   6.639934387920000E+01   6.753434956430000E+01
   6.868875658760000E+01   6.986289658770001E+01   7.105710687260000E+01
   7.227173051560000E+01   7.350711645470000E+01   7.476361959220000E+01
   7.604160089730000E+01   7.734142750920000E+01   7.866347284310000E+01
   8.000811669680000E+01   8.137574536060001E+01   8.276675172770000E+01
   8.418153540740001E+01   8.562050283959999E+01   8.708406741180001E+01
   8.857264957779999E+01   9.008667697840001E+01   9.162658456450001E+01
   9.319281472160000E+01   9.478581739740000E+01   9.640605023070000E+01
   9.805397868310000E+01   9.973007617250001E+01   1.014348242090000E+02
   1.031687125350000E+02   1.049322392610000E+02   1.067259110160000E+02
   1.085502430860000E+02   1.104057595660000E+02   1.122929935120000E+02
   1.142124870870000E+02   1.161647917270000E+02   1.181504682900000E+02
   1.201700872220000E+02   1.222242287210000E+02   1.243134829030000E+02
   1.264384499690000E+02   1.285997403810000E+02   1.307979750360000E+02
   1.330337854460000E+02   1.353078139130000E+02   1.376207137240000E+02
   1.399731493290000E+02   1.423657965380000E+02   1.447993427110000E+02
   1.472744869600000E+02   1.497919403460000E+02   1.523524260840000E+02
   1.549566797520000E+02   1.576054495020000E+02   1.602994962740000E+02
   1.630395940160000E+02   1.658265299050000E+02   1.686611045730000E+02
   1.715441323390000E+02   1.744764414410000E+02   1.774588742750000E+02
   1.804922876360000E+02   1.835775529650000E+02   1.867155565990000E+02
   1.899072000260000E+02   1.931534001430000E+02   1.964550895200000E+02
   1.998132166690000E+02   2.032287463150000E+02
    </PP_R>
    <PP_RAB>
   1.556027731740000E-06   1.582625854200000E-06   1.609678634450000E-06
   1.637193844210000E-06   1.665179388090000E-06   1.693643305780000E-06
   1.722593774420000E-06   1.752039110920000E-06   1.781987774350000E-06
   1.812448368390000E-06   1.843429643770000E-06   1.874940500820000E-06
   1.906989991980000E-06   1.939587324480000E-06   1.972741862870000E-06
   2.006463131830000E-06   2.040760818830000E-06   2.075644776910000E-06
   2.111125027570000E-06   2.147211763610000E-06   2.183915352030000E-06
   2.221246337070000E-06   2.259215443200000E-06   2.297833578210000E-06
   2.337111836340000E-06   2.377061501480000E-06   2.417694050380000E-06
   2.459021156010000E-06   2.501054690830000E-06   2.543806730260000E-06
   2.587289556140000E-06   2.631515660250000E-06   2.676497747880000E-06
   2.722248741530000E-06   2.768781784560000E-06   2.816110245010000E-06
   2.864247719450000E-06   2.913208036830000E-06   2.963005262510000E-06
   3.013653702260000E-06   3.065167906410000E-06   3.117562673980000E-06
   3.170853056970000E-06   3.225054364700000E-06   3.280182168130000E-06
   3.336252304430000E-06   3.393280881460000E-06   3.451284282420000E-06
   3.510279170560000E-06   3.570282493990000E-06   3.631311490490000E-06
   3.693383692510000E-06   3.756516932200000E-06   3.820729346510000E-06
   3.886039382430000E-06   3.952465802260000E-06   4.020027689040000E-06
   4.088744451970000E-06   4.158635832070000E-06   4.229721907770000E-06
   4.302023100730000E-06   4.375560181680000E-06   4.450354276390000E-06
   4.526426871770000E-06   4.603799822000000E-06   4.682495354830000E-06
   4.762536077970000E-06   4.843944985560000E-06   4.926745464820000E-06
   5.010961302700000E-06   5.096616692810000E-06   5.183736242260000E-06
   5.272344978830000E-06   5.362468358090000E-06   5.454132270740000E-06
   5.547363050050000E-06   5.642187479410000E-06   5.738632800060000E-06
   5.836726718860000E-06   5.936497416310000E-06   6.037973554580000E-06
   6.141184285820000E-06   6.246159260460000E-06   6.352928635800000E-06
   6.461523084590000E-06   6.571973803930000E-06   6.684312524180000E-06
   6.798571518060000E-06   6.914783609980000E-06   7.032982185430000E-06
   7.153201200560000E-06   7.275475191980000E-06   7.399839286640000E-06
   7.526329211930000E-06   7.654981305960000E-06   7.785832527990000E-06
   7.918920469040000E-06   8.054283362710000E-06   8.191960096120001E-06
   8.331990221159999E-06   8.474413965750001E-06   8.619272245490000E-06
   8.766606675350001E-06   8.916459581670000E-06   9.068874014289999E-06
   9.223893758920000E-06   9.381563349739999E-06   9.541928082160000E-06
   9.705034025880000E-06   9.870928038080000E-06   1.003965777690000E-05
   1.021127171510000E-05   1.038581915410000E-05   1.056335023790000E-05
   1.074391596790000E-05   1.092756821700000E-05   1.111435974500000E-05
   1.130434421350000E-05   1.149757620130000E-05   1.169411122030000E-05
   1.189400573120000E-05   1.209731715970000E-05   1.230410391340000E-05
   1.251442539800000E-05   1.272834203490000E-05   1.294591527810000E-05
   1.316720763230000E-05   1.339228267050000E-05   1.362120505230000E-05
   1.385404054270000E-05   1.409085603090000E-05   1.433171954930000E-05
   1.457670029350000E-05   1.482586864160000E-05   1.507929617480000E-05
   1.533705569800000E-05   1.559922126060000E-05   1.586586817760000E-05
   1.613707305140000E-05   1.641291379410000E-05   1.669346964940000E-05
   1.697882121540000E-05   1.726905046820000E-05   1.756424078500000E-05
   1.786447696830000E-05   1.816984527020000E-05   1.848043341700000E-05
   1.879633063470000E-05   1.911762767450000E-05   1.944441683880000E-05
   1.977679200780000E-05   2.011484866640000E-05   2.045868393180000E-05
   2.080839658120000E-05   2.116408708030000E-05   2.152585761200000E-05
   2.189381210610000E-05   2.226805626880000E-05   2.264869761310000E-05
   2.303584548990000E-05   2.342961111940000E-05   2.383010762290000E-05
   2.423745005500000E-05   2.465175543760000E-05   2.507314279250000E-05
   2.550173317610000E-05   2.593764971420000E-05   2.638101763710000E-05
   2.683196431590000E-05   2.729061929890000E-05   2.775711434860000E-05
   2.823158348020000E-05   2.871416299940000E-05   2.920499154200000E-05
   2.970421011350000E-05   3.021196212980000E-05   3.072839345820000E-05
   3.125365245940000E-05   3.178789003020000E-05   3.233125964670000E-05
   3.288391740840000E-05   3.344602208320000E-05   3.401773515300000E-05
   3.459922085980000E-05   3.519064625330000E-05   3.579218123850000E-05
   3.640399862470000E-05   3.702627417520000E-05   3.765918665790000E-05
   3.830291789610000E-05   3.895765282150000E-05   3.962357952670000E-05
   4.030088931950000E-05   4.098977677790000E-05   4.169043980600000E-05
   4.240307969080000E-05   4.312790115980000E-05   4.386511244020000E-05
   4.461492531870000E-05   4.537755520180000E-05   4.615322117840000E-05
   4.694214608240000E-05   4.774455655660000E-05   4.856068311800000E-05
   4.939076022390000E-05   5.023502633950000E-05   5.109372400610000E-05
   5.196709991090000E-05   5.285540495790000E-05   5.375889433990000E-05
   5.467782761200000E-05   5.561246876600000E-05   5.656308630600000E-05
   5.752995332620000E-05   5.851334758870000E-05   5.951355160370000E-05
   6.053085271050000E-05   6.156554315990000E-05   6.261792019850000E-05
   6.368828615390000E-05   6.477694852140001E-05   6.588422005280001E-05
   6.701041884570000E-05   6.815586843520000E-05   6.932089788690000E-05
   7.050584189110000E-05   7.171104085930000E-05   7.293684102190000E-05
   7.418359452750000E-05   7.545165954430000E-05   7.674140036289999E-05
   7.805318750070000E-05   7.938739780900001E-05   8.074441458040000E-05
   8.212462765960000E-05   8.352843355520001E-05   8.495623555340000E-05
   8.640844383410000E-05   8.788547558870000E-05   8.938775513970000E-05
   9.091571406310000E-05   9.246979131180001E-05   9.405043334220000E-05
   9.565809424210000E-05   9.729323586140000E-05   9.895632794469999E-05
   1.006478482660000E-04   1.023682827670000E-04   1.041181256940000E-04
   1.058978797440000E-04   1.077080562060000E-04   1.095491751080000E-04
   1.114217653680000E-04   1.133263649450000E-04   1.152635209940000E-04
   1.172337900220000E-04   1.192377380500000E-04   1.212759407720000E-04
   1.233489837250000E-04   1.254574624540000E-04   1.276019826850000E-04
   1.297831604960000E-04   1.320016224970000E-04   1.342580060100000E-04
   1.365529592510000E-04   1.388871415140000E-04   1.412612233660000E-04
   1.436758868330000E-04   1.461318256020000E-04   1.486297452170000E-04
   1.511703632820000E-04   1.537544096670000E-04   1.563826267190000E-04
   1.590557694730000E-04   1.617746058710000E-04   1.645399169840000E-04
   1.673524972310000E-04   1.702131546110000E-04   1.731227109380000E-04
   1.760820020690000E-04   1.790918781520000E-04   1.821532038660000E-04
   1.852668586700000E-04   1.884337370580000E-04   1.916547488130000E-04
   1.949308192680000E-04   1.982628895750000E-04   2.016519169740000E-04
   2.050988750660000E-04   2.086047540970000E-04   2.121705612370000E-04
   2.157973208730000E-04   2.194860749030000E-04   2.232378830360000E-04
   2.270538230930000E-04   2.309349913190000E-04   2.348825027000000E-04
   2.388974912780000E-04   2.429811104830000E-04   2.471345334590000E-04
   2.513589534040000E-04   2.556555839130000E-04   2.600256593230000E-04
   2.644704350740000E-04   2.689911880630000E-04   2.735892170150000E-04