<UPF version="2.0.1">
  <PP_INFO>
    Generated by new atomic code, or converted to UPF format
    Author: 
    Generation date: 
    Pseudopotential type: US
    Element: Cr
    Functional:  SLA  PZ   NOGX NOGC
    Suggested minimum cutoff for wavefunctions:   0. Ry
    Suggested minimum cutoff for charge density:   0. Ry
    The Pseudo was generated with a Non-Relativistic Calculation
    L component and cutoff radius for Local Potential:  0   0.0000
    Valence configuration: 
    nl pn  l   occ       Rcut    Rcut US       E pseu
    3S  1  0  2.00      0.000      0.000     0.000000
    3P  2  1  6.00      0.000      0.000     0.000000
    4S  1  0  1.60      0.000      0.000     0.000000
    3D  3  2  3.40      0.000      0.000     0.000000
    Generation configuration: not available.
  </PP_INFO>
    <!-- END OF HUMAN READABLE SECTION -->
  <PP_HEADER generated="Generated by new atomic code, or converted to UPF format" author="" date="" comment="" element="Cr" pseudo_type="US" relativistic="no" is_ultrasoft="true" is_paw="false" is_coulomb="false" has_so="false" has_wfc="false" has_gipaw="false" paw_as_gipaw="false" core_correction="true" functional=" SLA  PZ   NOGX NOGC" z_valence="14.000000000000000" total_psenergy="-173.95204350500001" wfc_cutoff="0.0000000000000000" rho_cutoff="0.0000000000000000" l_max="2" l_max_rho="0" l_local="0" mesh_size="857" number_of_wfc="4" number_of_proj="6"/>
  <PP_MESH>
    <PP_R>
   0.000000000000000E+00   1.765450378330000E-06   3.561078666990000E-06
   5.387400715250000E-06   7.244941190080000E-06   9.134233726910001E-06
   1.105582108290000E-05   1.301025529300000E-05   1.499809782830000E-05
   1.701991975750000E-05   1.907630191080000E-05   2.116783504720000E-05
   2.329512002350000E-05   2.545876796770000E-05   2.765940045380000E-05
   2.989764968110000E-05   3.217415865510000E-05   3.448958137300000E-05
   3.684458301080000E-05   3.923984011490000E-05   4.167604079630000E-05
   4.415388492840000E-05   4.667408434780000E-05   4.923736305910000E-05
   5.184445744260000E-05   5.449611646610000E-05   5.719310189990000E-05
   5.993618853570000E-05   6.272616440930000E-05   6.556383102670001E-05
   6.845000359470000E-05   7.138551125470000E-05   7.437119732140001E-05
   7.740791952439999E-05   8.049655025550000E-05   8.363797681840000E-05
   8.683310168410000E-05   9.008284275030000E-05   9.338813360460001E-05
   9.674992379319999E-05   1.001691790930000E-04   1.036468817910000E-04
   1.071840309620000E-04   1.107816427620000E-04   1.144407507150000E-04
   1.181624060120000E-04   1.219476778120000E-04   1.257976535510000E-04
   1.297134392520000E-04   1.336961598440000E-04   1.377469594870000E-04
   1.418670018960000E-04   1.460574706800000E-04   1.503195696800000E-04
   1.546545233140000E-04   1.590635769310000E-04   1.635479971650000E-04
   1.681090723050000E-04   1.727481126590000E-04   1.774664509340000E-04
   1.822654426170000E-04   1.871464663640000E-04   1.921109244010000E-04
   1.971602429190000E-04   2.022958724910000E-04   2.075192884830000E-04
   2.128319914810000E-04   2.182355077220000E-04   2.237313895330000E-04
   2.293212157730000E-04   2.350065922910000E-04   2.407891523860000E-04
   2.466705572760000E-04   2.526524965740000E-04   2.587366887760000E-04
   2.649248817520000E-04   2.712188532510000E-04   2.776204114090000E-04
   2.841313952700000E-04   2.907536753130000E-04   2.974891539910000E-04
   3.043397662770000E-04   3.113074802190000E-04   3.183942975070000E-04
   3.256022540450000E-04   3.329334205420000E-04   3.403899030980000E-04
   3.479738438170000E-04   3.556874214180000E-04   3.635328518640000E-04
   3.715123889930000E-04   3.796283251740000E-04   3.878829919560000E-04
   3.962787607470000E-04   4.048180434890000E-04   4.135032933510000E-04
   4.223370054380000E-04   4.313217175050000E-04   4.404600106860000E-04
   4.497545102350000E-04   4.592078862820000E-04   4.688228546000000E-04
   4.786021773820000E-04   4.885486640390000E-04   4.986651720040000E-04
   5.089546075540000E-04   5.194199266440001E-04   5.300641357590000E-04
   5.408902927730000E-04   5.519015078330000E-04   5.631009442460000E-04
   5.744918193950000E-04   5.860774056580000E-04   5.978610313480000E-04
   6.098460816740000E-04   6.220359997100000E-04   6.344342873810000E-04
   6.470445064770000E-04   6.598702796690000E-04   6.729152915550000E-04
   6.861832897130000E-04   6.996780857820000E-04   7.134035565560000E-04
   7.273636450980001E-04   7.415623618710000E-04   7.560037858909999E-04
   7.706920659000000E-04   7.856314215570000E-04   8.008261446490000E-04
   8.162806003260000E-04   8.319992283550000E-04   8.479865443920000E-04
   8.642471412850000E-04   8.807856903890000E-04   8.976069429080000E-04
   9.147157312630000E-04   9.321169704780000E-04   9.498156595910000E-04
   9.678168830950000E-04   9.861258123910000E-04   1.004747707280000E-03
   1.023687917480000E-03   1.042951884130000E-03   1.062545141410000E-03
   1.082473318080000E-03   1.102742139120000E-03   1.123357427360000E-03
   1.144325105190000E-03   1.165651196200000E-03   1.187341826980000E-03
   1.209403228820000E-03   1.231841739540000E-03   1.254663805280000E-03
   1.277875982380000E-03   1.301484939260000E-03   1.325497458300000E-03
   1.349920437850000E-03   1.374760894140000E-03   1.400025963370000E-03
   1.425722903700000E-03   1.451859097360000E-03   1.478442052770000E-03
   1.505479406710000E-03   1.532978926480000E-03   1.560948512160000E-03
   1.589396198870000E-03   1.618330159090000E-03   1.647758704970000E-03
   1.677690290780000E-03   1.708133515270000E-03   1.739097124190000E-03
   1.770590012800000E-03   1.802621228390000E-03   1.835199972910000E-03
   1.868335605590000E-03   1.902037645670000E-03   1.936315775090000E-03
   1.971179841300000E-03   2.006639860060000E-03   2.042706018350000E-03
   2.079388677290000E-03   2.116698375080000E-03   2.154645830090000E-03
   2.193241943880000E-03   2.232497804370000E-03   2.272424689010000E-03
   2.313034068020000E-03   2.354337607690000E-03   2.396347173720000E-03
   2.439074834660000E-03   2.482532865330000E-03   2.526733750390000E-03
   2.571690187890000E-03   2.617415092940000E-03   2.663921601430000E-03
   2.711223073780000E-03   2.759333098790000E-03   2.808265497530000E-03
   2.858034327330000E-03   2.908653885820000E-03   2.960138715020000E-03
   3.012503605530000E-03   3.065763600750000E-03   3.119934001260000E-03
   3.175030369170000E-03   3.231068532590000E-03   3.288064590210000E-03
   3.346034915890000E-03   3.404996163390000E-03   3.464965271120000E-03
   3.525959467060000E-03   3.587996273650000E-03   3.651093512870000E-03
   3.715269311330000E-03   3.780542105510000E-03   3.846930647000000E-03
   3.914454007960000E-03   3.983131586540000E-03   4.052983112480000E-03
   4.124028652770000E-03   4.196288617420000E-03   4.269783765310000E-03
   4.344535210190000E-03   4.420564426690000E-03   4.497893256550000E-03
   4.576543914820000E-03   4.656538996340000E-03   4.737901482130000E-03
   4.820654746070000E-03   4.904822561560000E-03   4.990429108390000E-03
   5.077498979670000E-03   5.166057188870000E-03   5.256129177080000E-03
   5.347740820210000E-03   5.440918436530000E-03   5.535688794160000E-03
   5.632079118800000E-03   5.730117101500000E-03   5.829830906700000E-03
   5.931249180240000E-03   6.034401057620000E-03   6.139316172390000E-03
   6.246024664620000E-03   6.354557189610000E-03   6.464944926640000E-03
   6.577219587970000E-03   6.691413427950000E-03   6.807559252250000E-03
   6.925690427320000E-03   7.045840889970000E-03   7.168045157090000E-03
   7.292338335610000E-03   7.418756132550000E-03   7.547334865290000E-03
   7.678111472030000E-03   7.811123522350000E-03   7.946409228029999E-03
   8.084007454050000E-03   8.223957729700001E-03   8.366300260000001E-03
   8.511075937200000E-03   8.658326352550001E-03   8.808093808249999E-03
   8.960421329590001E-03   9.115352677310000E-03   9.272932360199999E-03
   9.433205647840000E-03   9.596218583660001E-03   9.762017998110000E-03
   9.930651522160000E-03   1.010216760100000E-02   1.027661550780000E-02
   1.045404535810000E-02   1.063450812400000E-02   1.081805564910000E-02
   1.100474066300000E-02   1.119461679660000E-02   1.138773859780000E-02
   1.158416154660000E-02   1.178394207160000E-02   1.198713756590000E-02
   1.219380640350000E-02   1.240400795660000E-02   1.261780261170000E-02
   1.283525178820000E-02   1.305641795480000E-02   1.328136464840000E-02
   1.351015649180000E-02   1.374285921250000E-02   1.397953966140000E-02
   1.422026583220000E-02   1.446510688100000E-02   1.471413314580000E-02
   1.496741616710000E-02   1.522502870810000E-02   1.548704477600000E-02
   1.575353964290000E-02   1.602458986760000E-02   1.630027331760000E-02
   1.658066919150000E-02   1.686585804150000E-02   1.715592179690000E-02
   1.745094378730000E-02   1.775100876700000E-02   1.805620293870000E-02
   1.836661397880000E-02   1.868233106250000E-02   1.900344488910000E-02
   1.933004770830000E-02   1.966223334700000E-02   2.000009723560000E-02
   2.034373643580000E-02   2.069324966860000E-02   2.104873734220000E-02
   2.141030158160000E-02   2.177804625700000E-02   2.215207701440000E-02
   2.253250130560000E-02   2.291942841910000E-02   2.331296951170000E-02
   2.371323763990000E-02   2.412034779330000E-02   2.453441692650000E-02
   2.495556399370000E-02   2.538390998220000E-02   2.581957794760000E-02
   2.626269304880000E-02   2.671338258430000E-02   2.717177602840000E-02
   2.763800506870000E-02   2.811220364370000E-02   2.859450798160000E-02
   2.908505663910000E-02   2.958399054120000E-02   3.009145302210000E-02
   3.060758986580000E-02   3.113254934860000E-02   3.166648228110000E-02
   3.220954205190000E-02   3.276188467150000E-02   3.332366881740000E-02
   3.389505587930000E-02   3.447621000550000E-02   3.506729815050000E-02
   3.566849012230000E-02   3.627995863190000E-02   3.690187934230000E-02
   3.753443091930000E-02   3.817779508270000E-02   3.883215665860000E-02
   3.949770363230000E-02   4.017462720280000E-02   4.086312183690000E-02
   4.156338532600000E-02   4.227561884210000E-02   4.300002699610000E-02
   4.373681789660000E-02   4.448620320920000E-02   4.524839821790000E-02
   4.602362188650000E-02   4.681209692190000E-02   4.761404983750000E-02
   4.842971101910000E-02   4.925931479020000E-02   5.010309947990000E-02
   5.096130749130000E-02   5.183418537100000E-02   5.272198387980000E-02
   5.362495806510000E-02   5.454336733390000E-02   5.547747552730000E-02
   5.642755099670000E-02   5.739386668040000E-02   5.837670018200000E-02
   5.937633385060000E-02   6.039305486180000E-02   6.142715529970000E-02
   6.247893224130000E-02   6.354868784190000E-02   6.463672942150001E-02
   6.574336955350001E-02   6.686892615400000E-02   6.801372257380001E-02
   6.917808769070000E-02   7.036235600430001E-02   7.156686773190001E-02
   7.279196890650000E-02   7.403801147590000E-02   7.530535340400001E-02
   7.659435877360000E-02   7.790539789110000E-02   7.923884739260000E-02
   8.059509035240001E-02   8.197451639269999E-02   8.337752179610000E-02
   8.480450961880000E-02   8.625588980670000E-02   8.773207931349999E-02
   8.923350221960000E-02   9.076058985500000E-02   9.231378092219999E-02
   9.389352162310000E-02   9.550026578650000E-02   9.713447499910000E-02
   9.879661873740000E-02   1.004871745030000E-01   1.022066279600000E-01
   1.039554730750000E-01   1.057342122560000E-01   1.075433565010000E-01
   1.093834255410000E-01   1.112549479940000E-01   1.131584615120000E-01
   1.150945129360000E-01   1.170636584580000E-01   1.190664637740000E-01
   1.211035042520000E-01   1.231753650940000E-01   1.252826415050000E-01
   1.274259388660000E-01   1.296058729040000E-01   1.318230698720000E-01
   1.340781667270000E-01   1.363718113170000E-01   1.387046625590000E-01
   1.410773906380000E-01   1.434906771920000E-01   1.459452155110000E-01
   1.484417107380000E-01   1.509808800660000E-01   1.535634529500000E-01
   1.561901713130000E-01   1.588617897610000E-01   1.615790757980000E-01
   1.643428100470000E-01   1.671537864760000E-01   1.700128126240000E-01
   1.729207098340000E-01   1.758783134890000E-01   1.788864732500000E-01
   1.819460533040000E-01   1.850579326090000E-01   1.882230051480000E-01
   1.914421801850000E-01   1.947163825260000E-01   1.980465527870000E-01
   2.014336476610000E-01   2.048786401950000E-01   2.083825200680000E-01
   2.119462938770000E-01   2.155709854260000E-01   2.192576360190000E-01
   2.230073047580000E-01   2.268210688510000E-01   2.307000239190000E-01
   2.346452843100000E-01   2.386579834220000E-01   2.427392740240000E-01
   2.468903285940000E-01   2.511123396480000E-01   2.554065200890000E-01
   2.597741035520000E-01   2.642163447580000E-01   2.687345198780000E-01
   2.733299268960000E-01   2.780038859840000E-01   2.827577398790000E-01
   2.875928542720000E-01   2.925106181980000E-01   2.975124444350000E-01
   3.025997699100000E-01   3.077740561150000E-01   3.130367895210000E-01
   3.183894820100000E-01   3.238336713060000E-01   3.293709214210000E-01
   3.350028230990000E-01   3.407309942750000E-01   3.465570805440000E-01
   3.524827556260000E-01   3.585097218550000E-01   3.646397106590000E-01
   3.708744830670000E-01   3.772158302080000E-01   3.836655738280000E-01
   3.902255668140000E-01   3.968976937250000E-01   4.036838713340000E-01
   4.105860491780000E-01   4.176062101200000E-01   4.247463709150000E-01
   4.320085827950000E-01   4.393949320510000E-01   4.469075406390000E-01
   4.545485667870000E-01   4.623202056120000E-01   4.702246897570000E-01
   4.782642900270000E-01   4.864413160430000E-01   4.947581169070000E-01
   5.032170818750000E-01   5.118206410430000E-01   5.205712660489999E-01
   5.294714707760000E-01   5.385238120810000E-01   5.477308905279999E-01
   5.570953511309999E-01   5.666198841200000E-01   5.763072257070000E-01
   5.861601588780000E-01   5.961815141920001E-01   6.063741705880000E-01
   6.167410562210000E-01   6.272851492950000E-01   6.380094789250000E-01
   6.489171260030000E-01   6.600112240850000E-01   6.712949602900000E-01
   6.827715762180000E-01   6.944443688790000E-01   7.063166916390000E-01
   7.183919551880000E-01   7.306736285150000E-01   7.431652399070000E-01
   7.558703779620000E-01   7.687926926200001E-01   7.819358962139999E-01
   7.953037645290000E-01   8.089001378980000E-01   8.227289222930000E-01
   8.367940904590000E-01   8.510996830440000E-01   8.656498097699999E-01
   8.804486506060000E-01   8.955004569720000E-01   9.108095529619999E-01
   9.263803365820000E-01   9.422172810170000E-01   9.583249359160000E-01
   9.747079286940000E-01   9.913709658700000E-01   1.008318834410000E+00
   1.025556403110000E+00   1.043088623990000E+00   1.060920533720000E+00
   1.079057255060000E+00   1.097503998340000E+00   1.116266062950000E+00
   1.135348838870000E+00   1.154757808210000E+00   1.174498546800000E+00
   1.194576725760000E+00   1.214998113170000E+00   1.235768575700000E+00
   1.256894080300000E+00   1.278380695910000E+00   1.300234595230000E+00
   1.322462056460000E+00   1.345069465120000E+00   1.368063315880000E+00
   1.391450214430000E+00   1.415236879370000E+00   1.439430144150000E+00
   1.464036959020000E+00   1.489064393060000E+00   1.514519636150000E+00
   1.540410001100000E+00   1.566742925700000E+00   1.593525974900000E+00
   1.620766842940000E+00   1.648473355610000E+00   1.676653472440000E+00
   1.705315289040000E+00   1.734467039400000E+00   1.764117098240000E+00
   1.794273983460000E+00   1.824946358540000E+00   1.856143035070000E+00
   1.887872975250000E+00   1.920145294470000E+00   1.952969263950000E+00
   1.986354313380000E+00   2.020310033630000E+00   2.054846179530000E+00
   2.089972672650000E+00   2.125699604150000E+00   2.162037237680000E+00
   2.198996012340000E+00   2.236586545670000E+00   2.274819636710000E+00
   2.313706269080000E+00   2.353257614160000E+00   2.393485034280000E+00
   2.434400086020000E+00   2.476014523450000E+00   2.518340301620000E+00
   2.561389579900000E+00   2.605174725510000E+00   2.649708317080000E+00
   2.695003148240000E+00   2.741072231320000E+00   2.787928801090000E+00
   2.835586318520000E+00   2.884058474710000E+00   2.933359194750000E+00
   2.983502641800000E+00   3.034503221100000E+00   3.086375584120000E+00
   3.139134632790000E+00   3.192795523770000E+00   3.247373672790000E+00
   3.302884759100000E+00   3.359344729950000E+00   3.416769805220000E+00
   3.475176482000000E+00   3.534581539400000E+00   3.595002043360000E+00
   3.656455351510000E+00   3.718959118190000E+00   3.782531299540000E+00
   3.847190158600000E+00   3.912954270620000E+00   3.979842528360000E+00
   4.047874147510000E+00   4.117068672240000E+00   4.187445980810000E+00
   4.259026291250000E+00   4.331830167190000E+00   4.405878523790000E+00
   4.481192633700000E+00   4.557794133210000E+00   4.635705028450000E+00
   4.714947701710000E+00   4.795544917870000E+00   4.877519830960000E+00
   4.960895990790000E+00   5.045697349710000E+00   5.131948269510000E+00
   5.219673528410000E+00   5.308898328180000E+00   5.399648301380000E+00
   5.491949518720000E+00   5.585828496560000E+00   5.681312204500000E+00
   5.778428073170000E+00   5.877204002080000E+00   5.977668367640000E+00
   6.079850031320000E+00   6.183778347930000E+00   6.289483174080000E+00
   6.396994876700000E+00   6.506344341830000E+00   6.617562983470000E+00
   6.730682752560000E+00   6.845736146230000E+00   6.962756217100000E+00
   7.081776582760000E+00   7.202831435470000E+00   7.325955551940000E+00
   7.451184303350000E+00   7.578553665490000E+00   7.708100229120000E+00
   7.839861210460000E+00   7.973874461890000E+00   8.110178482820000E+00
   8.248812430759999E+00   8.389816132560000E+00   8.533230095850000E+00
   8.679095520700001E+00   8.827454311409999E+00   8.978349088600000E+00
   9.131823201420000E+00   9.287920740000001E+00   9.446686548150000E+00
   9.608166236220001E+00   9.772406194189999E+00   9.939453605030000E+00
   1.010935645820000E+01   1.028216356360000E+01   1.045792456520000E+01
   1.063668995590000E+01   1.081851109140000E+01   1.100344020550000E+01
   1.119153042470000E+01   1.138283578370000E+01   1.157741124090000E+01
   1.177531269390000E+01   1.197659699610000E+01   1.218132197250000E+01
   1.238954643660000E+01   1.260133020740000E+01   1.281673412610000E+01
   1.303582007430000E+01   1.325865099090000E+01   1.348529089110000E+01
   1.371580488410000E+01   1.395025919210000E+01   1.418872116920000E+01
   1.443125932110000E+01   1.467794332420000E+01   1.492884404600000E+01
   1.518403356550000E+01   1.544358519370000E+01   1.570757349480000E+01
   1.597607430740000E+01   1.624916476680000E+01   1.652692332630000E+01
   1.680942978090000E+01   1.709676528890000E+01   1.738901239650000E+01
   1.768625506060000E+01   1.798857867310000E+01   1.829607008590000E+01
   1.860881763520000E+01   1.892691116740000E+01   1.925044206460000E+01
   1.957950327100000E+01   1.991418931940000E+01   2.025459635880000E+01
   2.060082218140000E+01   2.095296625120000E+01   2.131112973250000E+01
   2.167541551860000E+01   2.204592826190000E+01   2.242277440330000E+01
   2.280606220370000E+01   2.319590177410000E+01   2.359240510780000E+01
   2.399568611270000E+01   2.440586064360000E+01   2.482304653560000E+01
   2.524736363820000E+01   2.567893384940000E+01   2.611788115120000E+01
   2.656433164440000E+01   2.701841358580000E+01   2.748025742420000E+01
   2.794999583850000E+01   2.842776377550000E+01   2.891369848850000E+01
   2.940793957720000E+01   2.991062902760000E+01   3.042191125260000E+01
   3.094193313370000E+01   3.147084406310000E+01   3.200879598670000E+01
   3.255594344760000E+01   3.311244363080000E+01   3.367845640790000E+01
   3.425414438360000E+01   3.483967294170000E+01   3.543521029340000E+01
   3.604092752490000E+01   3.665699864720000E+01   3.728360064550000E+01
   3.792091353050000E+01   3.856912038980000E+01   3.922840744080000E+01
   3.989896408370000E+01   4.058098295660000E+01   4.127465999040000E+01
   4.198019446490000E+01   4.269778906660000E+01   4.342764994650000E+01
   4.416998677960000E+01   4.492501282480000E+01   4.569294498650000E+01
   4.647400387680000E+01   4.726841387880000E+01   4.807640321110000E+01
   4.889820399330000E+01   4.973405231300000E+01   5.058418829330000E+01
   5.144885616160000E+01   5.232830432040000E+01   5.322278541810000E+01
   5.413255642190000E+01   5.505787869120000E+01   5.599901805340000E+01
   5.695624487950000E+01   5.792983416220000E+01   5.892006559500000E+01
   5.992722365220000E+01   6.095159767070000E+01   6.199348193350000E+01
   6.305317575360000E+01   6.413098356070000E+01   6.522721498810000E+01
   6.634218496170000E+01   6.747621379109999E+01   6.862962726050000E+01
   6.980275672360000E+01   7.099593919749999E+01   7.220951746070000E+01
   7.344384015049999E+01   7.469926186410000E+01   7.597614325990000E+01
   7.727485116100000E+01   7.859575866119999E+01   7.993924523170000E+01
   8.130569683010000E+01   8.269550601150000E+01   8.410907204119999E+01
   8.554680100950000E+01   8.700910594790000E+01   8.849640694839999E+01
   9.000913128390000E+01   9.154771353069999E+01   9.311259569370000E+01
   9.470422733330000E+01   9.632306569450000E+01   9.796957583830000E+01
   9.964423077500000E+01   1.013475116010000E+02   1.030799076350000E+02
   1.048419165620000E+02   1.066340445720000E+02   1.084568065100000E+02
   1.103107260180000E+02   1.121963356940000E+02   1.141141772350000E+02
   1.160648016010000E+02   1.180487691690000E+02   1.200666498930000E+02
   1.221190234710000E+02   1.242064795120000E+02   1.263296177010000E+02
   1.284890479730000E+02   1.306853906930000E+02   1.329192768260000E+02
   1.351913481250000E+02   1.375022573110000E+02   1.398526682660000E+02
   1.422432562150000E+02   1.446747079290000E+02   1.471477219160000E+02
   1.496630086260000E+02   1.522212906520000E+02   1.548233029400000E+02
   1.574697929950000E+02   1.601615211050000E+02   1.628992605500000E+02
   1.656837978300000E+02   1.685159328890000E+02   1.713964793440000E+02
   1.743262647210000E+02   1.773061306890000E+02   1.803369333080000E+02
   1.834195432680000E+02   1.865548461430000E+02   1.897437426440000E+02
   1.929871488820000E+02   1.962859966220000E+02   1.996412335600000E+02
   2.030538235910000E+02   2.065247470860000E+02
    </PP_R>
    <PP_RAB>
   1.750531198210000E-06   1.780454085980000E-06   1.810888463750000E-06
   1.841843074740000E-06   1.873326811600000E-06   1.905348719010000E-06
   1.937917996230000E-06   1.971043999790000E-06   2.004736246150000E-06
   2.039004414440000E-06   2.073858349240000E-06   2.109308063420000E-06
   2.145363740980000E-06   2.182035740040000E-06   2.219334595730000E-06
   2.257271023310000E-06   2.295855921180000E-06   2.335100374020000E-06
   2.375015656020000E-06   2.415613234060000E-06   2.456904771030000E-06
   2.498902129200000E-06   2.541617373600000E-06   2.585062775480000E-06
   2.629250815880000E-06   2.674194189160000E-06   2.719905806680000E-06
   2.766398800510000E-06   2.813686527180000E-06   2.861782571540000E-06
   2.910700750660000E-06   2.960455117780000E-06   3.011059966370000E-06
   3.062529834220000E-06   3.114879507630000E-06   3.168124025640000E-06
   3.222278684380000E-06   3.277359041440000E-06   3.333380920320000E-06
   3.390360415040000E-06   3.448313894710000E-06   3.507258008220000E-06
   3.567209689100000E-06   3.628186160280000E-06   3.690204939150000E-06
   3.753283842480000E-06   3.817440991640000E-06   3.882694817720000E-06
   3.949064066880000E-06   4.016567805740000E-06   4.085225426800000E-06
   4.155056654080000E-06   4.226081548730000E-06   4.298320514820000E-06
   4.371794305230000E-06   4.446524027540000E-06   4.522531150170000E-06
   4.599837508470000E-06   4.678465311080000E-06   4.758437146250000E-06
   4.839775988320000E-06   4.922505204390000E-06   5.006648560940000E-06
   5.092230230740000E-06   5.179274799750000E-06   5.267807274190000E-06
   5.357853087720000E-06   5.449438108760000E-06   5.542588647920000E-06
   5.637331465540000E-06   5.733693779410000E-06   5.831703272550000E-06
   5.931388101190000E-06   6.032776902850000E-06   6.135898804580000E-06
   6.240783431300000E-06   6.347460914340000E-06   6.455961900070000E-06
   6.566317558720000E-06   6.678559593340000E-06   6.792720248900000E-06
   6.908832321550000E-06   7.026929168020000E-06   7.147044715270000E-06
   7.269213470170000E-06   7.393470529430000E-06   7.519851589700000E-06
   7.648392957820001E-06   7.779131561230000E-06   7.912104958610000E-06
   8.047351350640000E-06   8.184909590980000E-06   8.324819197469999E-06
   8.467120363420000E-06   8.611853969200000E-06   8.759061593990000E-06
   8.908785527670000E-06   9.061068783040001E-06   9.215955108140000E-06
   9.373488998800001E-06   9.533715711470001E-06   9.696681276170000E-06
   9.862432509769999E-06   1.003101702940000E-05   1.020248326610000E-05
   1.037688047880000E-05   1.055425876850000E-05   1.073466909240000E-05
   1.091816327910000E-05   1.110479404280000E-05   1.129461499900000E-05
   1.148768067950000E-05   1.168404654830000E-05   1.188376901770000E-05
   1.208690546390000E-05   1.229351424410000E-05   1.250365471310000E-05
   1.271738724020000E-05   1.293477322650000E-05   1.315587512290000E-05
   1.338075644760000E-05   1.360948180470000E-05   1.384211690260000E-05
   1.407872857280000E-05   1.431938478920000E-05   1.456415468790000E-05
   1.481310858630000E-05   1.506631800430000E-05   1.532385568380000E-05
   1.558579561050000E-05   1.585221303470000E-05   1.612318449300000E-05
   1.639878783020000E-05   1.667910222180000E-05   1.696420819670000E-05
   1.725418766030000E-05   1.754912391820000E-05   1.784910169980000E-05
   1.815420718290000E-05   1.846452801840000E-05   1.878015335550000E-05
   1.910117386730000E-05   1.942768177670000E-05   1.975977088310000E-05
   2.009753658940000E-05   2.044107592900000E-05   2.079048759420000E-05
   2.114587196410000E-05   2.150733113380000E-05   2.187496894370000E-05
   2.224889100870000E-05   2.262920474970000E-05   2.301601942330000E-05
   2.340944615380000E-05   2.380959796530000E-05   2.421658981350000E-05
   2.463053861940000E-05   2.505156330240000E-05   2.547978481470000E-05
   2.591532617620000E-05   2.635831250940000E-05   2.680887107570000E-05
   2.726713131190000E-05   2.773322486730000E-05   2.820728564160000E-05
   2.868944982310000E-05   2.917985592850000E-05   2.967864484180000E-05
   3.018595985540000E-05   3.070194671120000E-05   3.122675364220000E-05
   3.176053141520000E-05   3.230343337430000E-05   3.285561548480000E-05
   3.341723637770000E-05   3.398845739610000E-05   3.456944264050000E-05
   3.516035901690000E-05   3.576137628400000E-05   3.637266710250000E-05
   3.699440708440000E-05   3.762677484360000E-05   3.826995204710000E-05
   3.892412346730000E-05   3.958947703500000E-05   4.026620389330000E-05
   4.095449845280000E-05   4.165455844720000E-05   4.236658499010000E-05
   4.309078263320000E-05   4.382735942420000E-05   4.457652696750000E-05
   4.533850048440000E-05   4.611349887520000E-05   4.690174478180000E-05
   4.770346465210000E-05   4.851888880480000E-05   4.934825149530000E-05
   5.019179098350000E-05   5.104974960200000E-05   5.192237382570000E-05
   5.280991434270000E-05   5.371262612620000E-05   5.463076850770000E-05
   5.556460525190000E-05   5.651440463200000E-05   5.748043950690000E-05
   5.846298739980000E-05   5.946233057770000E-05   6.047875613240000E-05
   6.151255606359999E-05   6.256402736170000E-05   6.363347209420000E-05
   6.472119749200000E-05   6.582751603730000E-05   6.695274555420001E-05
   6.809720929930000E-05   6.926123605490001E-05   7.044516022329999E-05
   7.164932192310000E-05   7.287406708660000E-05   7.411974755940000E-05
   7.538672120140000E-05   7.667535198960000E-05   7.798601012270000E-05
   7.931907212740000E-05   8.067492096670000E-05   8.205394614960000E-05
   8.345654384340000E-05   8.488311698729999E-05   8.633407540820001E-05
   8.780983593830000E-05   8.931082253510001E-05   9.083746640290000E-05
   9.239020611710001E-05   9.396948774959999E-05   9.557576499759999E-05
   9.720949931340000E-05   9.887116003730000E-05   1.005612245320000E-04
   1.022801783210000E-04   1.040285152260000E-04   1.058067375100000E-04
   1.076153560220000E-04   1.094548903440000E-04   1.113258689380000E-04
   1.132288292990000E-04   1.151643181130000E-04   1.171328914060000E-04
   1.191351147120000E-04   1.211715632320000E-04   1.232428219960000E-04
   1.253494860390000E-04   1.274921605630000E-04   1.296714611180000E-04
   1.318880137750000E-04   1.341424553060000E-04   1.364354333680000E-04
   1.387676066910000E-04   1.411396452610000E-04   1.435522305200000E-04
   1.460060555580000E-04   1.485018253090000E-04   1.510402567620000E-04
   1.536220791570000E-04   1.562480342030000E-04   1.589188762860000E-04
   1.616353726870000E-04   1.643983038030000E-04   1.672084633700000E-04
   1.700666586930000E-04   1.729737108760000E-04   1.759304550590000E-04
   1.789377406570000E-04   1.819964316050000E-04   1.851074066070000E-04
   1.882715593850000E-04   1.914897989380000E-04   1.947630498050000E-04
   1.980922523270000E-04   2.014783629210000E-04   2.049223543490000E-04
   2.084252160040000E-04   2.119879541910000E-04   2.156115924140000E-04
   2.192971716760000E-04   2.230457507720000E-04   2.268584065960000E-04
   2.307362344500000E-04   2.346803483590000E-04   2.386918813910000E-04
   2.427719859820000E-04   2.469218342660000E-04   2.511426184160000E-04
   2.554355509790000E-04   2.598018652340000E-04   2.642428155370000E-04
   2.687596776880000E-04   2.733537492930000E-04   2.780263501410000E-04
   2.827788225800000E-04   2.876125319020000E-04   2.925288667390000E-04
   2.975292394580000E-04   3.026150865710000E-04   3.077878691420000E-04
   3.130490732120000E-04   3.184002102230000E-04   3.238428174530000E-04
   3.293784584580000E-04   3.350087235210000E-04   3.407352301070000E-04
   3.465596233300000E-04   3.524835764280000E-04   3.585087912360000E-04