<UPF version="2.0.1">
  <PP_INFO>
    Generated by new atomic code, or converted to UPF format
    Author: 
    Generation date: 
    Pseudopotential type: US
    Element: Cs
    Functional: SLA  PZ   NOGX NOGC
    Suggested minimum cutoff for wavefunctions:   0. Ry
    Suggested minimum cutoff for charge density:   0. Ry
    The Pseudo was generated with a Non-Relativistic Calculation
    L component and cutoff radius for Local Potential:  0   0.0000
    Valence configuration: 
    nl pn  l   occ       Rcut    Rcut US       E pseu
    5S  1  0  2.00      0.000      0.000     0.000000
    5P  2  1  6.00      0.000      0.000     0.000000
    5D  3  2  0.00      0.000      0.000     0.000000
    6S  1  0  1.00      0.000      0.000     0.000000
    6P  2  1  0.00      0.000      0.000     0.000000
    Generation configuration: not available.
  </PP_INFO>
    <!-- END OF HUMAN READABLE SECTION -->
  <PP_HEADER generated="Generated by new atomic code, or converted to UPF format" author="" date="" comment="" element="Cs" pseudo_type="US" relativistic="no" is_ultrasoft="true" is_paw="false" is_coulomb="false" has_so="false" has_wfc="false" has_gipaw="false" paw_as_gipaw="false" core_correction="true" functional="SLA  PZ   NOGX NOGC" z_valence="9.0000000000000000" total_psenergy="-62.956469177599999" wfc_cutoff="0.0000000000000000" rho_cutoff="0.0000000000000000" l_max="2" l_max_rho="0" l_local="0" mesh_size="905" number_of_wfc="5" number_of_proj="6"/>
  <PP_MESH>
    <PP_R>
   0.000000000000000E+00   7.703783469080000E-07   1.553925236510000E-06
   2.350865766650000E-06   3.161428882940000E-06   3.985847444470000E-06
   4.824358290740000E-06   5.677202309690000E-06   6.544624506900000E-06
   7.426874075990000E-06   8.324204470180000E-06   9.236873475130000E-06
   1.016514328300000E-05   1.110928056770000E-05   1.206955656170000E-05
   1.304624713360000E-05   1.403963286770000E-05   1.504999914460000E-05
   1.607763622290000E-05   1.712283932280000E-05   1.818590871110000E-05
   1.926714978690000E-05   2.036687317000000E-05   2.148539478940000E-05
   2.262303597490000E-05   2.378012354880000E-05   2.495698991990000E-05
   2.615397317920000E-05   2.737141719680000E-05   2.860967172070000E-05
   2.986909247770000E-05   3.115004127480000E-05   3.245288610390000E-05
   3.377800124700000E-05   3.512576738420000E-05   3.649657170260000E-05
   3.789080800760000E-05   3.930887683650000E-05   4.075118557290000E-05
   4.221814856430000E-05   4.371018724070000E-05   4.522773023590000E-05
   4.677121351080000E-05   4.834108047810000E-05   4.993778213030000E-05
   5.156177716890000E-05   5.321353213620000E-05   5.489352154950000E-05
   5.660222803710000E-05   5.834014247750000E-05   6.010776413980000E-05
   6.190560082740000E-05   6.373416902420000E-05   6.559399404230000E-05
   6.748561017350001E-05   6.940956084250000E-05   7.136639876309999E-05
   7.335668609690000E-05   7.538099461510000E-05   7.743990586220000E-05
   7.953401132360000E-05   8.166391259530000E-05   8.383022155679999E-05
   8.603356054660000E-05   8.827456254150000E-05   9.055387133790000E-05
   9.287214173710000E-05   9.523003973340000E-05   9.762824270519999E-05
   1.000674396100000E-04   1.025483311810000E-04   1.050716301320000E-04
   1.076380613570000E-04   1.102483621410000E-04   1.129032823750000E-04
   1.156035847650000E-04   1.183500450550000E-04   1.211434522510000E-04
   1.239846088450000E-04   1.268743310460000E-04   1.298134490140000E-04
   1.328028071030000E-04   1.358432640960000E-04   1.389356934570000E-04
   1.420809835830000E-04   1.452800380550000E-04   1.485337758970000E-04
   1.518431318470000E-04   1.552090566190000E-04   1.586325171770000E-04
   1.621144970150000E-04   1.656559964390000E-04   1.692580328540000E-04
   1.729216410530000E-04   1.766478735220000E-04   1.804378007350000E-04
   1.842925114640000E-04   1.882131130930000E-04   1.922007319360000E-04
   1.962565135570000E-04   2.003816231050000E-04   2.045772456440000E-04
   2.088445864940000E-04   2.131848715810000E-04   2.175993477840000E-04
   2.220892832960000E-04   2.266559679900000E-04   2.313007137860000E-04
   2.360248550280000E-04   2.408297488730000E-04   2.457167756710000E-04
   2.506873393730000E-04   2.557428679230000E-04   2.608848136790000E-04
   2.661146538220000E-04   2.714338907820000E-04   2.768440526750000E-04
   2.823466937350000E-04   2.879433947650000E-04   2.936357635880000E-04
   2.994254355110000E-04   3.053140737960000E-04   3.113033701340000E-04
   3.173950451340000E-04   3.235908488160000E-04   3.298925611160000E-04
   3.363019923930000E-04   3.428209839520000E-04   3.494514085740000E-04
   3.561951710510000E-04   3.630542087370000E-04   3.700304920980000E-04
   3.771260252880000E-04   3.843428467150000E-04   3.916830296330000E-04
   3.991486827330000E-04   4.067419507540000E-04   4.144650150940000E-04
   4.223200944410000E-04   4.303094454070000E-04   4.384353631770000E-04
   4.467001821720000E-04   4.551062767120000E-04   4.636560617070000E-04
   4.723519933440000E-04   4.811965697960000E-04   4.901923319390000E-04
   4.993418640810000E-04   5.086477947070000E-04   5.181127972280000E-04
   5.277395907590000E-04   5.375309408890000E-04   5.474896604850000E-04
   5.576186104940000E-04   5.679207007670000E-04   5.783988908960000E-04
   5.890561910610000E-04   5.998956628990000E-04   6.109204203810000E-04
   6.221336307050000E-04   6.335385152110000E-04   6.451383503010000E-04
   6.569364683820000E-04   6.689362588269999E-04   6.811411689419999E-04
   6.935547049620000E-04   7.061804330560000E-04   7.190219803510000E-04
   7.320830359750000E-04   7.453673521170000E-04   7.588787451030000E-04
   7.726210964960000E-04   7.865983542070000E-04   8.008145336320000E-04
   8.152737188040000E-04   8.299800635670000E-04   8.449377927690000E-04
   8.601512034760000E-04   8.756246662080000E-04   8.913626261900000E-04
   9.073696046340000E-04   9.236502000350000E-04   9.402090894920000E-04
   9.570510300560000E-04   9.741808600880000E-04   9.916035006580001E-04
   1.009323956950000E-03   1.027347319720000E-03   1.045678766720000E-03
   1.064323564220000E-03   1.083287068510000E-03   1.102574727440000E-03
   1.122192081990000E-03   1.142144767830000E-03   1.162438516990000E-03
   1.183079159470000E-03   1.204072624930000E-03   1.225424944380000E-03
   1.247142251930000E-03   1.269230786540000E-03   1.291696893830000E-03
   1.314547027870000E-03   1.337787753050000E-03   1.361425746000000E-03
   1.385467797460000E-03   1.409920814220000E-03   1.434791821180000E-03
   1.460087963300000E-03   1.485816507660000E-03   1.511984845580000E-03
   1.538600494710000E-03   1.565671101230000E-03   1.593204441980000E-03
   1.621208426760000E-03   1.649691100580000E-03   1.678660645960000E-03
   1.708125385290000E-03   1.738093783220000E-03   1.768574449080000E-03
   1.799576139390000E-03   1.831107760330000E-03   1.863178370320000E-03
   1.895797182630000E-03   1.928973568010000E-03   1.962717057400000E-03
   1.997037344650000E-03   2.031944289310000E-03   2.067447919480000E-03
   2.103558434650000E-03   2.140286208680000E-03   2.177641792750000E-03
   2.215635918400000E-03   2.254279500600000E-03   2.293583640910000E-03
   2.333559630640000E-03   2.374218954120000E-03   2.415573292000000E-03
   2.457634524570000E-03   2.500414735200000E-03   2.543926213830000E-03
   2.588181460470000E-03   2.633193188780000E-03   2.678974329770000E-03
   2.725538035470000E-03   2.772897682740000E-03   2.821066877080000E-03
   2.870059456570000E-03   2.919889495830000E-03   2.970571310070000E-03
   3.022119459200000E-03   3.074548751990000E-03   3.127874250370000E-03
   3.182111273720000E-03   3.237275403290000E-03   3.293382486670000E-03
   3.350448642340000E-03   3.408490264300000E-03   3.467524026780000E-03
   3.527566889040000E-03   3.588636100230000E-03   3.650749204360000E-03
   3.713924045320000E-03   3.778178772020000E-03   3.843531843600000E-03
   3.910002034730000E-03   3.977608441010000E-03   4.046370484450000E-03
   4.116307919060000E-03   4.187440836510000E-03   4.259789671900000E-03
   4.333375209670000E-03   4.408218589510000E-03   4.484341312480000E-03
   4.561765247150000E-03   4.640512635940000E-03   4.720606101430000E-03
   4.802068652940000E-03   4.884923693080000E-03   4.969195024490000E-03
   5.054906856710000E-03   5.142083813070000E-03   5.230750937840000E-03
   5.320933703370000E-03   5.412658017400000E-03   5.505950230580000E-03
   5.600837143940000E-03   5.697346016660000E-03   5.795504573870000E-03
   5.895341014620000E-03   5.996884019990000E-03   6.100162761330000E-03
   6.205206908610000E-03   6.312046638990000E-03   6.420712645450000E-03
   6.531236145640000E-03   6.643648890810000E-03   6.757983174980000E-03
   6.874271844170000E-03   6.992548305870000E-03   7.112846538610000E-03
   7.235201101750000E-03   7.359647145390000E-03   7.486220420460000E-03
   7.614957289020000E-03   7.745894734690000E-03   7.879070373250001E-03
   8.014522463489999E-03   8.152289918170000E-03   8.292412315230001E-03
   8.434929909099999E-03   8.579883642340001E-03   8.727315157350000E-03
   8.877266808350000E-03   9.029781673549999E-03   9.184903567519999E-03
   9.342677053780000E-03   9.503147457600000E-03   9.666360879010001E-03
   9.832364206080000E-03   1.000120512830000E-02   1.017293215050000E-02
   1.034759460650000E-02   1.052524267340000E-02   1.070592738610000E-02
   1.088970065180000E-02   1.107661526500000E-02   1.126672492260000E-02
   1.146008423950000E-02   1.165674876410000E-02   1.185677499420000E-02
   1.206022039360000E-02   1.226714340820000E-02   1.247760348290000E-02
   1.269166107890000E-02   1.290937769070000E-02   1.313081586420000E-02
   1.335603921420000E-02   1.358511244300000E-02   1.381810135900000E-02
   1.405507289540000E-02   1.429609512940000E-02   1.454123730220000E-02
   1.479056983820000E-02   1.504416436600000E-02   1.530209373840000E-02
   1.556443205340000E-02   1.583125467580000E-02   1.610263825850000E-02
   1.637866076480000E-02   1.665940149060000E-02   1.694494108740000E-02
   1.723536158500000E-02   1.753074641580000E-02   1.783118043790000E-02
   1.813674996040000E-02   1.844754276750000E-02   1.876364814380000E-02
   1.908515690030000E-02   1.941216140040000E-02   1.974475558600000E-02
   2.008303500500000E-02   2.042709683860000E-02   2.077703992910000E-02
   2.113296480830000E-02   2.149497372660000E-02   2.186317068210000E-02
   2.223766145080000E-02   2.261855361640000E-02   2.300595660210000E-02
   2.339998170110000E-02   2.380074210930000E-02   2.420835295740000E-02
   2.462293134400000E-02   2.504459636960000E-02   2.547346917030000E-02
   2.590967295300000E-02   2.635333303060000E-02   2.680457685800000E-02
   2.726353406890000E-02   2.773033651280000E-02   2.820511829300000E-02
   2.868801580520000E-02   2.917916777630000E-02   2.967871530490000E-02
   3.018680190140000E-02   3.070357352920000E-02   3.122917864670000E-02
   3.176376825010000E-02   3.230749591670000E-02   3.286051784900000E-02
   3.342299291940000E-02   3.399508271610000E-02   3.457695158950000E-02
   3.516876669920000E-02   3.577069806230000E-02   3.638291860190000E-02
   3.700560419730000E-02   3.763893373390000E-02   3.828308915500000E-02
   3.893825551400000E-02   3.960462102760000E-02   4.028237712970000E-02
   4.097171852640000E-02   4.167284325230000E-02   4.238595272690000E-02
   4.311125181270000E-02   4.384894887410000E-02   4.459925583730000E-02
   4.536238825080000E-02   4.613856534800000E-02   4.692801010930000E-02
   4.773094932710000E-02   4.854761367030000E-02   4.937823775060000E-02
   5.022306019030000E-02   5.108232369070000E-02   5.195627510130000E-02
   5.284516549160000E-02   5.374925022260000E-02   5.466878902040000E-02
   5.560404605050000E-02   5.655528999430000E-02   5.752279412580000E-02
   5.850683639010000E-02   5.950769948360000E-02   6.052567093490000E-02
   6.156104318740000E-02   6.261411368360000E-02   6.368518495030000E-02
   6.477456468550000E-02   6.588256584680000E-02   6.700950674170000E-02
   6.815571111850000E-02   6.932150825930000E-02   7.050723307530000E-02
   7.171322620230000E-02   7.293983409860000E-02   7.418740914499999E-02
   7.545630974580000E-02   7.674690043140001E-02   7.805955196360000E-02
   7.939464144180000E-02   8.075255241130000E-02   8.213367497380000E-02
   8.353840589890001E-02   8.496714873880000E-02   8.642031394350000E-02
   8.789831897939999E-02   8.940158844859999E-02   9.093055421140001E-02
   9.248565551010000E-02   9.406733909510000E-02   9.567605935360000E-02
   9.731227843980000E-02   9.897646640780000E-02   1.006691013460000E-01
   1.023906695170000E-01   1.041416654930000E-01   1.059225923020000E-01
   1.077339615680000E-01   1.095762936650000E-01   1.114501178570000E-01
   1.133559724590000E-01   1.152944049850000E-01   1.172659723100000E-01
   1.192712408270000E-01   1.213107866110000E-01   1.233851955840000E-01
   1.254950636820000E-01   1.276409970320000E-01   1.298236121170000E-01
   1.320435359610000E-01   1.343014063050000E-01   1.365978717910000E-01
   1.389335921500000E-01   1.413092383880000E-01   1.437254929840000E-01
   1.461830500790000E-01   1.486826156840000E-01   1.512249078740000E-01
   1.538106570010000E-01   1.564406059000000E-01   1.591155101060000E-01
   1.618361380660000E-01   1.646032713630000E-01   1.674177049430000E-01
   1.702802473370000E-01   1.731917208980000E-01   1.761529620370000E-01
   1.791648214600000E-01   1.822281644160000E-01   1.853438709450000E-01
   1.885128361290000E-01   1.917359703500000E-01   1.950141995520000E-01
   1.983484655070000E-01   2.017397260850000E-01   2.051889555300000E-01
   2.086971447390000E-01   2.122653015460000E-01   2.158944510140000E-01
   2.195856357270000E-01   2.233399160920000E-01   2.271583706390000E-01
   2.310420963380000E-01   2.349922089080000E-01   2.390098431400000E-01
   2.430961532210000E-01   2.472523130700000E-01   2.514795166720000E-01
   2.557789784200000E-01   2.601519334650000E-01   2.645996380750000E-01
   2.691233699870000E-01   2.737244287830000E-01   2.784041362580000E-01
   2.831638368010000E-01   2.880048977820000E-01   2.929287099450000E-01
   2.979366878040000E-01   3.030302700560000E-01   3.082109199880000E-01
   3.134801259000000E-01   3.188394015340000E-01   3.242902865050000E-01
   3.298343467470000E-01   3.354731749620000E-01   3.412083910750000E-01
   3.470416427040000E-01   3.529746056280000E-01   3.590089842740000E-01
   3.651465122000000E-01   3.713889526010000E-01   3.777380988090000E-01
   3.841957748100000E-01   3.907638357700000E-01   3.974441685650000E-01
   4.042386923270000E-01   4.111493589890000E-01   4.181781538540000E-01
   4.253270961570000E-01   4.325982396520000E-01   4.399936731980000E-01
   4.475155213580000E-01   4.551659450150000E-01   4.629471419880000E-01
   4.708613476630000E-01   4.789108356390000E-01   4.870979183790000E-01
   4.954249478710000E-01   5.038943163120000E-01   5.125084567860000E-01
   5.212698439690000E-01   5.301809948390001E-01   5.392444693960000E-01
   5.484628714020000E-01   5.578388491239999E-01   5.673750961010000E-01
   5.770743519110000E-01   5.869394029620000E-01   5.969730832940000E-01
   6.071782753870000E-01   6.175579109970000E-01   6.281149719919999E-01
   6.388524912110000E-01   6.497735533350000E-01   6.608812957750000E-01
   6.721789095700000E-01   6.836696403050000E-01   6.953567890460000E-01
   7.072437132830000E-01   7.193338279010000E-01   7.316306061560000E-01
   7.441375806730000E-01   7.568583444640000E-01   7.697965519590000E-01
   7.829559200550000E-01   7.963402291830000E-01   8.099533243960000E-01
   8.237991164730000E-01   8.378815830420000E-01   8.522047697240001E-01
   8.667727912920000E-01   8.815898328570000E-01   8.966601510700000E-01
   9.119880753400000E-01   9.275780090830000E-01   9.434344309860000E-01
   9.595618962919999E-01   9.759650381100000E-01   9.926485687450000E-01
   1.009617281050000E+00   1.026876049810000E+00   1.044429833140000E+00
   1.062283673900000E+00   1.080442701140000E+00   1.098912131620000E+00
   1.117697271230000E+00   1.136803516590000E+00   1.156236356540000E+00
   1.176001373780000E+00   1.196104246400000E+00   1.216550749570000E+00
   1.237346757170000E+00   1.258498243510000E+00   1.280011284980000E+00
   1.301892061880000E+00   1.324146860110000E+00   1.346782073070000E+00
   1.369804203400000E+00   1.393219864920000E+00   1.417035784490000E+00
   1.441258803970000E+00   1.465895882160000E+00   1.490954096820000E+00
   1.516440646690000E+00   1.542362853560000E+00   1.568728164380000E+00
   1.595544153390000E+00   1.622818524300000E+00   1.650559112530000E+00
   1.678773887390000E+00   1.707470954450000E+00   1.736658557830000E+00
   1.766345082550000E+00   1.796539056980000E+00   1.827249155260000E+00
   1.858484199820000E+00   1.890253163860000E+00   1.922565174020000E+00
   1.955429512890000E+00   1.988855621760000E+00   2.022853103320000E+00
   2.057431724380000E+00   2.092601418710000E+00   2.128372289880000E+00
   2.164754614160000E+00   2.201758843510000E+00   2.239395608510000E+00
   2.277675721490000E+00   2.316610179570000E+00   2.356210167880000E+00
   2.396487062720000E+00   2.437452434860000E+00   2.479118052870000E+00
   2.521495886470000E+00   2.564598110000000E+00   2.608437105880000E+00
   2.653025468210000E+00   2.698376006370000E+00   2.744501748690000E+00
   2.791415946200000E+00   2.839132076440000E+00   2.887663847330000E+00
   2.937025201120000E+00   2.987230318360000E+00   3.038293622010000E+00
   3.090229781570000E+00   3.143053717300000E+00   3.196780604480000E+00
   3.251425877830000E+00   3.307005235850000E+00   3.363534645440000E+00
   3.421030346380000E+00   3.479508856100000E+00   3.538986974320000E+00
   3.599481787970000E+00   3.661010676020000E+00   3.723591314550000E+00
   3.787241681760000E+00   3.851980063160000E+00   3.917825056840000E+00
   3.984795578800000E+00   4.052910868360000E+00   4.122190493740000E+00
   4.192654357620000E+00   4.264322702920000E+00   4.337216118560000E+00
   4.411355545400000E+00   4.486762282280000E+00   4.563457992090000E+00
   4.641464708020000E+00   4.720804839890000E+00   4.801501180590000E+00
   4.883576912610000E+00   4.967055614720000E+00   5.051961268740000E+00
   5.138318266430000E+00   5.226151416460000E+00   5.315485951620000E+00
   5.406347535970000E+00   5.498762272310000E+00   5.592756709580000E+00
   5.688357850590000E+00   5.785593159670000E+00   5.884490570660000E+00
   5.985078494870000E+00   6.087385829260000E+00   6.191441964750000E+00
   6.297276794660000E+00   6.404920723280000E+00   6.514404674620000E+00
   6.625760101320000E+00   6.739018993630000E+00   6.854213888640000E+00
   6.971377879610000E+00   7.090544625490000E+00   7.211748360590000E+00
   7.335023904370000E+00   7.460406671540000E+00   7.587932682120000E+00
   7.717638571880000E+00   7.849561602800000E+00   7.983739673830000E+00
   8.120211331709999E+00   8.259015782130000E+00   8.400192900910000E+00
   8.543783245509999E+00   8.689828066650000E+00   8.838369320180000E+00
   8.989449679140000E+00   9.143112545990000E+00   9.299402065090000E+00
   9.458363135400001E+00   9.620041423349999E+00   9.784483376000001E+00
   9.951736234340000E+00   1.012184804690000E+01   1.029486768340000E+01
   1.047084484920000E+01   1.064983009900000E+01   1.083187485190000E+01
   1.101703140570000E+01   1.120535295250000E+01   1.139689359320000E+01
   1.159170835390000E+01   1.178985320110000E+01   1.199138505790000E+01
   1.219636182050000E+01   1.240484237470000E+01   1.261688661320000E+01
   1.283255545190000E+01   1.305191084840000E+01   1.327501581930000E+01
   1.350193445840000E+01   1.373273195480000E+01   1.396747461240000E+01
   1.420622986810000E+01   1.444906631160000E+01   1.469605370530000E+01
   1.494726300370000E+01   1.520276637460000E+01   1.546263721890000E+01
   1.572695019270000E+01   1.599578122790000E+01   1.626920755440000E+01
   1.654730772240000E+01   1.683016162470000E+01   1.711785051960000E+01
   1.741045705470000E+01   1.770806529020000E+01   1.801076072310000E+01
   1.831863031190000E+01   1.863176250180000E+01   1.895024724940000E+01
   1.927417604930000E+01   1.960364195990000E+01   1.993873963050000E+01
   2.027956532810000E+01   2.062621696530000E+01   2.097879412850000E+01
   2.133739810620000E+01   2.170213191840000E+01   2.207310034620000E+01
   2.245040996140000E+01   2.283416915800000E+01   2.322448818250000E+01
   2.362147916590000E+01   2.402525615620000E+01   2.443593515060000E+01
   2.485363412920000E+01   2.527847308900000E+01   2.571057407780000E+01
   2.615006123000000E+01   2.659706080180000E+01   2.705170120730000E+01
   2.751411305610000E+01   2.798442919010000E+01   2.846278472210000E+01
   2.894931707420000E+01   2.944416601790000E+01   2.994747371370000E+01
   3.045938475210000E+01   3.098004619530000E+01   3.150960761920000E+01
   3.204822115660000E+01   3.259604154070000E+01   3.315322614980000E+01
   3.371993505210000E+01   3.429633105220000E+01   3.488257973750000E+01
   3.547884952580000E+01   3.608531171410000E+01   3.670214052710000E+01
   3.732951316780000E+01   3.796760986820000E+01   3.861661394110000E+01
   3.927671183300000E+01   3.994809317700000E+01   4.063095084820000E+01
   4.132548101820000E+01   4.203188321220000E+01   4.275036036580000E+01
   4.348111888360000E+01   4.422436869850000E+01   4.498032333160000E+01
   4.574919995420000E+01   4.653121944960000E+01   4.732660647690000E+01
   4.813558953530000E+01   4.895840103010000E+01   4.979527733910000E+01
   5.064645888060000E+01   5.151219018270000E+01   5.239271995310000E+01
   5.328830115110000E+01   5.419919105980000E+01   5.512565136020000E+01
   5.606794820650000E+01   5.702635230230000E+01   5.800113897850000E+01
   5.899258827260000E+01   6.000098500860000E+01   6.102661887950000E+01
   6.206978453010000E+01   6.313078164150000E+01   6.420991501790000E+01
   6.530749467330000E+01   6.642383592109999E+01   6.755925946450000E+01
   6.871409148879999E+01   6.988866375489999E+01   7.108331369459999E+01
   7.229838450770001E+01   7.353422526070000E+01   7.479119098650000E+01
   7.606964278720000E+01   7.736994793720000E+01   7.869247998900001E+01
   8.003761888050001E+01   8.140575104410000E+01   8.279726951760000E+01
   8.421257405740000E+01   8.565207125310000E+01   8.711617464430000E+01
   8.860530483970000E+01   9.011988963760000E+01   9.166036414880000E+01
   9.322717092180000E+01   9.482076007000001E+01   9.644158940059999E+01
   9.809012454659999E+01   9.976683910020000E+01   1.014722147490000E+02
   1.032067414150000E+02   1.049709173930000E+02   1.067652494970000E+02
   1.085902532050000E+02   1.104464528030000E+02   1.123343815440000E+02
   1.142545817910000E+02   1.162076051820000E+02   1.181940127820000E+02
   1.202143752480000E+02   1.222692729910000E+02   1.243592963420000E+02
   1.264850457260000E+02   1.286471318290000E+02   1.308461757760000E+02
   1.330828093110000E+02   1.353576749740000E+02   1.376714262910000E+02
   1.400247279580000E+02   1.424182560320000E+02   1.448526981280000E+02
   1.473287536150000E+02   1.498471338140000E+02   1.524085622090000E+02
   1.550137746470000E+02   1.576635195550000E+02   1.603585581550000E+02
   1.630996646780000E+02   1.658876265920000E+02   1.687232448240000E+02
   1.716073339930000E+02   1.745407226400000E+02   1.775242534730000E+02
   1.805587836010000E+02   1.836451847860000E+02   1.867843436930000E+02
   1.899771621400000E+02   1.932245573630000E+02   1.965274622740000E+02
   1.998868257360000E+02   2.033036128270000E+02
    </PP_R>
    <PP_RAB>
   7.638681592190000E-07   7.769254193360000E-07   7.902058750920000E-07
   8.037133417050000E-07   8.174516996080000E-07   8.314248955660000E-07
   8.456369438080000E-07   8.600919271800000E-07   8.747939983190000E-07
   8.897473808460001E-07   9.049563705780000E-07   9.204253367640000E-07
   9.361587233380000E-07   9.521610501970000E-07   9.684369145020000E-07
   9.849909919910001E-07   1.001828038330000E-06   1.018952890480000E-06
   1.036370468080000E-06   1.054085774860000E-06   1.072103900090000E-06
   1.090430020010000E-06   1.109069399390000E-06   1.128027392940000E-06
   1.147309446930000E-06   1.166921100720000E-06   1.186867988370000E-06
   1.207155840220000E-06   1.227790484590000E-06   1.248777849400000E-06
   1.270123963930000E-06   1.291834960490000E-06   1.313917076230000E-06
   1.336376654930000E-06   1.359220148780000E-06   1.382454120280000E-06
   1.406085244090000E-06   1.430120308990000E-06   1.454566219780000E-06
   1.479429999290000E-06   1.504718790420000E-06   1.530439858130000E-06
   1.556600591610000E-06   1.583208506310000E-06   1.610271246170000E-06
   1.637796585810000E-06   1.665792432710000E-06   1.694266829550000E-06
   1.723227956460000E-06   1.752684133410000E-06   1.782643822600000E-06
   1.813115630870000E-06   1.844108312170000E-06   1.875630770110000E-06
   1.907692060460000E-06   1.940301393840000E-06   1.973468138250000E-06
   2.007201821880000E-06   2.041512135750000E-06   2.076408936540000E-06
   2.111902249450000E-06   2.148002271000000E-06   2.184719372050000E-06
   2.222064100690000E-06   2.260047185350000E-06   2.298679537830000E-06
   2.337972256460000E-06   2.377936629280000E-06   2.418584137270000E-06
   2.459926457690000E-06   2.501975467380000E-06   2.544743246200000E-06
   2.588242080520000E-06   2.632484466700000E-06   2.677483114730000E-06
   2.723250951840000E-06   2.769801126260000E-06   2.817147010940000E-06
   2.865302207440000E-06   2.914280549820000E-06   2.964096108610000E-06
   3.014763194860000E-06   3.066296364230000E-06   3.118710421210000E-06
   3.172020423350000E-06   3.226241685570000E-06   3.281389784600000E-06
   3.337480563410000E-06   3.394530135810000E-06   3.452554891030000E-06
   3.511571498460000E-06   3.571596912430000E-06   3.632648377080000E-06
   3.694743431310000E-06   3.757899913830000E-06   3.822135968290000E-06
   3.887470048440000E-06   3.953920923510000E-06   4.021507683550000E-06
   4.090249744930000E-06   4.160166855910000E-06   4.231279102330000E-06
   4.303606913350000E-06   4.377171067370000E-06   4.451992697920000E-06
   4.528093299830000E-06   4.605494735320000E-06   4.684219240330000E-06
   4.764289430890000E-06   4.845728309600000E-06   4.928559272290000E-06
   5.012806114690000E-06   5.098493039280000E-06   5.185644662260000E-06
   5.274286020600000E-06   5.364442579260000E-06   5.456140238460000E-06
   5.549405341180000E-06   5.644264680660000E-06   5.740745508160000E-06
   5.838875540760000E-06   5.938682969320000E-06   6.040196466570000E-06
   6.143445195390000E-06   6.248458817130000E-06   6.355267500170000E-06
   6.463901928590000E-06   6.574393310950000E-06   6.686773389290000E-06
   6.801074448230000E-06   6.917329324250000E-06   7.035571415130000E-06
   7.155834689530000E-06   7.278153696770000E-06   7.402563576720000E-06
   7.529100069950000E-06   7.657799527930000E-06   7.788698923530000E-06
   7.921835861610000E-06   8.057248589850000E-06   8.194976009680001E-06
   8.335057687549999E-06   8.477533866200000E-06   8.622445476279999E-06
   8.769834148100001E-06   8.919742223560000E-06   9.072212768360001E-06
   9.227289584330001E-06   9.385017222039999E-06   9.545440993599999E-06
   9.708606985629999E-06   9.874562072590000E-06   1.004335393010000E-05
   1.021503104890000E-05   1.038964274850000E-05   1.056723919130000E-05
   1.074787139750000E-05   1.093159125920000E-05   1.111845155550000E-05
   1.130850596780000E-05   1.150180909500000E-05   1.169841646940000E-05
   1.189838457250000E-05   1.210177085120000E-05   1.230863373450000E-05
   1.251903265010000E-05   1.273302804150000E-05   1.295068138550000E-05
   1.317205520960000E-05   1.339721311030000E-05   1.362621977110000E-05
   1.385914098120000E-05   1.409604365430000E-05   1.433699584790000E-05
   1.458206678300000E-05   1.483132686370000E-05   1.508484769770000E-05
   1.534270211640000E-05   1.560496419660000E-05   1.587170928110000E-05
   1.614301400050000E-05   1.641895629540000E-05   1.669961543880000E-05
   1.698507205850000E-05   1.727540816070000E-05   1.757070715340000E-05
   1.787105387030000E-05   1.817653459510000E-05   1.848723708660000E-05
   1.880325060360000E-05   1.912466593060000E-05   1.945157540400000E-05
   1.978407293860000E-05   2.012225405460000E-05   2.046621590480000E-05
   2.081605730280000E-05   2.117187875120000E-05   2.153378247070000E-05
   2.190187242920000E-05   2.227625437180000E-05   2.265703585120000E-05
   2.304432625860000E-05   2.343823685510000E-05   2.383888080340000E-05
   2.424637320080000E-05   2.466083111210000E-05   2.508237360300000E-05
   2.551112177450000E-05   2.594719879750000E-05   2.639072994870000E-05
   2.684184264590000E-05   2.730066648510000E-05   2.776733327750000E-05
   2.824197708740000E-05   2.872473427080000E-05   2.921574351460000E-05
   2.971514587600000E-05   3.022308482390000E-05   3.073970627930000E-05
   3.126515865730000E-05   3.179959291050000E-05   3.234316257140000E-05
   3.289602379700000E-05   3.345833541370000E-05   3.403025896260000E-05
   3.461195874650000E-05   3.520360187640000E-05   3.580535831980000E-05
   3.641740094990000E-05   3.703990559450000E-05   3.767305108720000E-05
   3.831701931850000E-05   3.897199528800000E-05   3.963816715760000E-05
   4.031572630560000E-05   4.100486738170000E-05   4.170578836260000E-05
   4.241869060950000E-05   4.314377892540000E-05   4.388126161400000E-05
   4.463135054010000E-05   4.539426118940000E-05   4.617021273160000E-05
   4.695942808250000E-05   4.776213396830000E-05   4.857856099100000E-05
   4.940894369430000E-05   5.025352063090000E-05   5.111253443160000E-05
   5.198623187440000E-05   5.287486395560000E-05   5.377868596200000E-05
   5.469795754430000E-05   5.563294279130000E-05   5.658391030620000E-05
   5.755113328360000E-05   5.853488958800000E-05   5.953546183340000E-05
   6.055313746500000E-05   6.158820884110001E-05   6.264097331790000E-05
   6.371173333420001E-05   6.480079649860000E-05   6.590847567790000E-05