<UPF version="2.0.1">
  <PP_INFO>
    Generated by new atomic code, or converted to UPF format
    Author: 
    Generation date: 
    Pseudopotential type: US
    Element: Cu
    Functional: SLA  PZ   NOGX NOGC
    Suggested minimum cutoff for wavefunctions:   0. Ry
    Suggested minimum cutoff for charge density:   0. Ry
    The Pseudo was generated with a Non-Relativistic Calculation
    L component and cutoff radius for Local Potential:  0   0.0000
    Valence configuration: 
    nl pn  l   occ       Rcut    Rcut US       E pseu
    3S  1  0  2.00      0.000      0.000     0.000000
    3P  2  1  6.00      0.000      0.000     0.000000
    3D  3  2  8.00      0.000      0.000     0.000000
    4S  1  0  2.00      0.000      0.000     0.000000
    4P  2  1  0.00      0.000      0.000     0.000000
    Generation configuration: not available.
  </PP_INFO>
    <!-- END OF HUMAN READABLE SECTION -->
  <PP_HEADER generated="Generated by new atomic code, or converted to UPF format" author="" date="" comment="" element="Cu" pseudo_type="US" relativistic="no" is_ultrasoft="true" is_paw="false" is_coulomb="false" has_so="false" has_wfc="false" has_gipaw="false" paw_as_gipaw="false" core_correction="true" functional="SLA  PZ   NOGX NOGC" z_valence="19.000000000000000" total_psenergy="-401.78682476099999" wfc_cutoff="0.0000000000000000" rho_cutoff="0.0000000000000000" l_max="2" l_max_rho="0" l_local="0" mesh_size="867" number_of_wfc="5" number_of_proj="6"/>
  <PP_MESH>
    <PP_R>
   0.000000000000000E+00   1.461062382070000E-06   2.947099586480000E-06
   4.458538522960000E-06   5.995813398680000E-06   7.559365842960000E-06
   9.149645034160000E-06   1.076710782870000E-05   1.241221889240000E-05
   1.408545083380000E-05   1.578728434000000E-05   1.751820831490000E-05
   1.927872001950000E-05   2.106932521460000E-05   2.289053830660000E-05
   2.474288249470000E-05   2.662688992150000E-05   2.854310182590000E-05
   3.049206869860000E-05   3.247435043990000E-05   3.449051652110000E-05
   3.654114614760000E-05   3.862682842580000E-05   4.074816253170000E-05
   4.290575788350000E-05   4.510023431670000E-05   4.733222226200000E-05
   4.960236292610000E-05   5.191130847670000E-05   5.425972222900000E-05
   5.664827883700000E-05   5.907766448670000E-05   6.154857709350000E-05
   6.406172650299999E-05   6.661783469420000E-05   6.921763598760000E-05
   7.186187725579999E-05   7.455131813820000E-05   7.728673125900000E-05
   8.006890244950000E-05   8.289863097370000E-05   8.577672975780001E-05
   8.870402562390000E-05   9.168135952749999E-05   9.470958679890000E-05
   9.778957738930000E-05   1.009222161200000E-04   1.041084029390000E-04
   1.073490531740000E-04   1.106450978020000E-04   1.139974837130000E-04
   1.174071739830000E-04   1.208751481490000E-04   1.244024024940000E-04
   1.279899503290000E-04   1.316388222870000E-04   1.353500666200000E-04
   1.391247494940000E-04   1.429639553040000E-04   1.468687869800000E-04
   1.508403663030000E-04   1.548798342330000E-04   1.589883512280000E-04
   1.631670975880000E-04   1.674172737860000E-04   1.717401008130000E-04
   1.761368205360000E-04   1.806086960460000E-04   1.851570120270000E-04
   1.897830751220000E-04   1.944882143100000E-04   1.992737812850000E-04
   2.041411508490000E-04   2.090917213020000E-04   2.141269148490000E-04
   2.192481780020000E-04   2.244569820010000E-04   2.297548232350000E-04
   2.351432236720000E-04   2.406237312930000E-04   2.461979205440000E-04
   2.518673927810000E-04   2.576337767330000E-04   2.634987289710000E-04
   2.694639343820000E-04   2.755311066550000E-04   2.817019887710000E-04
   2.879783535040000E-04   2.943620039320000E-04   3.008547739560000E-04
   3.074585288220000E-04   3.141751656610000E-04   3.210066140330000E-04
   3.279548364810000E-04   3.350218290940000E-04   3.422096220830000E-04
   3.495202803630000E-04   3.569559041420000E-04   3.645186295330000E-04
   3.722106291600000E-04   3.800341127850000E-04   3.879913279450000E-04
   3.960845605920000E-04   4.043161357560000E-04   4.126884182100000E-04
   4.212038131480000E-04   4.298647668780000E-04   4.386737675250000E-04
   4.476333457440000E-04   4.567460754480000E-04   4.660145745490000E-04
   4.754415057070000E-04   4.850295770960000E-04   4.947815431850000E-04
   5.047002055240000E-04   5.147884135530000E-04   5.250490654189999E-04
   5.354851088090000E-04   5.460995417950000E-04   5.568954137010000E-04
   5.678758259690000E-04   5.790439330610000E-04   5.904029433570000E-04
   6.019561200810000E-04   6.137067822380000E-04   6.256583055650000E-04
   6.378141235040000E-04   6.501777281850000E-04   6.627526714330000E-04
   6.755425657870000E-04   6.885510855350000E-04   7.017819677730000E-04
   7.152390134780000E-04   7.289260885980000E-04   7.428471251650000E-04
   7.570061224250000E-04   7.714071479810000E-04   7.860543389720000E-04
   8.009519032510000E-04   8.161041206000000E-04   8.315153439570000E-04
   8.471900006700000E-04   8.631325937640000E-04   8.793477032370000E-04
   8.958399873760000E-04   9.126141840960000E-04   9.296751122980000E-04
   9.470276732580000E-04   9.646768520300000E-04   9.826277188810001E-04
   1.000885430750000E-03   1.019455232720000E-03   1.038342459540000E-03
   1.057552537140000E-03   1.077090984210000E-03   1.096963413770000E-03
   1.117175534770000E-03   1.137733153770000E-03   1.158642176580000E-03
   1.179908609960000E-03   1.201538563330000E-03   1.223538250570000E-03
   1.245913991760000E-03   1.268672215020000E-03   1.291819458340000E-03
   1.315362371480000E-03   1.339307717860000E-03   1.363662376530000E-03
   1.388433344090000E-03   1.413627736770000E-03   1.439252792440000E-03
   1.465315872670000E-03   1.491824464880000E-03   1.518786184470000E-03
   1.546208777040000E-03   1.574100120560000E-03   1.602468227660000E-03
   1.631321247970000E-03   1.660667470390000E-03   1.690515325530000E-03
   1.720873388100000E-03   1.751750379380000E-03   1.783155169730000E-03
   1.815096781140000E-03   1.847584389820000E-03   1.880627328830000E-03
   1.914235090770000E-03   1.948417330500000E-03   1.983183867910000E-03
   2.018544690760000E-03   2.054509957520000E-03   2.091090000320000E-03
   2.128295327910000E-03   2.166136628640000E-03   2.204624773600000E-03
   2.243770819680000E-03   2.283586012790000E-03   2.324081791060000E-03
   2.365269788140000E-03   2.407161836540000E-03   2.449769971050000E-03
   2.493106432160000E-03   2.537183669590000E-03   2.582014345870000E-03
   2.627611340000000E-03   2.673987751110000E-03   2.721156902240000E-03
   2.769132344190000E-03   2.817927859350000E-03   2.867557465750000E-03
   2.918035421010000E-03   2.969376226470000E-03   3.021594631340000E-03
   3.074705636960000E-03   3.128724501110000E-03   3.183666742350000E-03
   3.239548144520000E-03   3.296384761280000E-03   3.354192920670000E-03
   3.412989229880000E-03   3.472790579930000E-03   3.533614150600000E-03
   3.595477415330000E-03   3.658398146230000E-03   3.722394419210000E-03
   3.787484619160000E-03   3.853687445250000E-03   3.921021916250000E-03
   3.989507376060000E-03   4.059163499220000E-03   4.130010296600000E-03
   4.202068121100000E-03   4.275357673550000E-03   4.349900008620000E-03
   4.425716540870000E-03   4.502829050920000E-03   4.581259691720000E-03
   4.661030994870000E-03   4.742165877110000E-03   4.824687646930000E-03
   4.908620011230000E-03   4.993987082170000E-03   5.080813384050000E-03
   5.169123860380000E-03   5.258943881050000E-03   5.350299249630000E-03
   5.443216210730000E-03   5.537721457610000E-03   5.633842139790000E-03
   5.731605870890000E-03   5.831040736530000E-03   5.932175302420000E-03
   6.035038622570000E-03   6.139660247620000E-03   6.246070233350000E-03
   6.354299149270000E-03   6.464378087460000E-03   6.576338671470000E-03
   6.690213065420000E-03   6.806033983200000E-03   6.923834697930000E-03
   7.043649051480000E-03   7.165511464180000E-03   7.289456944760000E-03
   7.415521100350000E-03   7.543740146740000E-03   7.674150918780000E-03
   7.806790880970000E-03   7.941698138200001E-03   8.078911446710000E-03
   8.218470225240001E-03   8.360414566310001E-03   8.504785247800000E-03
   8.651623744600000E-03   8.800972240570000E-03   8.952873640650000E-03
   9.107371583170000E-03   9.264510452390001E-03   9.424335391280000E-03
   9.586892314450000E-03   9.752227921350000E-03   9.920389709700000E-03
   1.009142598910000E-02   1.026538589510000E-02   1.044231940280000E-02
   1.062227734200000E-02   1.080531141090000E-02   1.099147419180000E-02
   1.118081916570000E-02   1.137340072760000E-02   1.156927420250000E-02
   1.176849586120000E-02   1.197112293600000E-02   1.217721363790000E-02
   1.238682717280000E-02   1.260002375840000E-02   1.281686464220000E-02
   1.303741211830000E-02   1.326172954560000E-02   1.348988136630000E-02
   1.372193312400000E-02   1.395795148260000E-02   1.419800424570000E-02
   1.444216037570000E-02   1.469049001410000E-02   1.494306450100000E-02
   1.519995639630000E-02   1.546123950000000E-02   1.572698887370000E-02
   1.599728086210000E-02   1.627219311480000E-02   1.655180460880000E-02
   1.683619567100000E-02   1.712544800160000E-02   1.741964469700000E-02
   1.771887027440000E-02   1.802321069540000E-02   1.833275339120000E-02
   1.864758728740000E-02   1.896780282960000E-02   1.929349200970000E-02
   1.962474839170000E-02   1.996166713930000E-02   2.030434504260000E-02
   2.065288054650000E-02   2.100737377840000E-02   2.136792657730000E-02
   2.173464252320000E-02   2.210762696630000E-02   2.248698705800000E-02
   2.287283178100000E-02   2.326527198100000E-02   2.366442039860000E-02
   2.407039170130000E-02   2.448330251680000E-02   2.490327146650000E-02
   2.533041919930000E-02   2.576486842640000E-02   2.620674395670000E-02
   2.665617273260000E-02   2.711328386610000E-02   2.757820867650000E-02
   2.805108072770000E-02   2.853203586660000E-02   2.902121226250000E-02
   2.951875044610000E-02   3.002479335060000E-02   3.053948635230000E-02
   3.106297731250000E-02   3.159541662020000E-02   3.213695723470000E-02
   3.268775473020000E-02   3.324796734020000E-02   3.381775600300000E-02
   3.439728440770000E-02   3.498671904170000E-02   3.558622923820000E-02
   3.619598722480000E-02   3.681616817310000E-02   3.744695024930000E-02
   3.808851466470000E-02   3.874104572840000E-02   3.940473090000000E-02
   4.007976084340000E-02   4.076632948150000E-02   4.146463405230000E-02
   4.217487516520000E-02   4.289725685870000E-02   4.363198665910000E-02
   4.437927564010000E-02   4.513933848320000E-02   4.591239353990000E-02
   4.669866289390000E-02   4.749837242510000E-02   4.831175187470000E-02
   4.913903491090000E-02   4.998045919600000E-02   5.083626645490000E-02
   5.170670254450000E-02   5.259201752430000E-02   5.349246572820000E-02
   5.440830583740000E-02   5.533980095510000E-02   5.628721868180000E-02
   5.725083119230000E-02   5.823091531390000E-02   5.922775260570000E-02
   6.024162943990000E-02   6.127283708350000E-02   6.232167178260000E-02
   6.338843484709999E-02   6.447343273750000E-02   6.557697715249999E-02
   6.669938511920000E-02   6.784097908360000E-02   6.900208700360000E-02
   7.018304244310000E-02   7.138418466760001E-02   7.260585874220001E-02
   7.384841563000000E-02   7.511221229380000E-02   7.639761179769999E-02
   7.770498341220000E-02   7.903470271990000E-02   8.038715172340000E-02
   8.176271895510000E-02   8.316179958880000E-02   8.458479555340000E-02
   8.603211564810000E-02   8.750417565990000E-02   8.900139848320000E-02
   9.052421424110001E-02   9.207306040910000E-02   9.364838194080000E-02
   9.525063139550000E-02   9.688026906850000E-02   9.853776312320001E-02
   1.002235897260000E-01   1.019382331810000E-01   1.036821860730000E-01
   1.054559494060000E-01   1.072600327480000E-01   1.090949543760000E-01
   1.109612414300000E-01   1.128594300550000E-01   1.147900655660000E-01
   1.167537025970000E-01   1.187509052620000E-01   1.207822473200000E-01
   1.228483123340000E-01   1.249496938470000E-01   1.270869955450000E-01
   1.292608314320000E-01   1.314718260090000E-01   1.337206144530000E-01
   1.360078427970000E-01   1.383341681180000E-01   1.407002587230000E-01
   1.431067943450000E-01   1.455544663350000E-01   1.480439778620000E-01
   1.505760441140000E-01   1.531513925040000E-01   1.557707628810000E-01
   1.584349077390000E-01   1.611445924360000E-01   1.639005954100000E-01
   1.667037084090000E-01   1.695547367130000E-01   1.724544993660000E-01
   1.754038294160000E-01   1.784035741460000E-01   1.814545953260000E-01
   1.845577694550000E-01   1.877139880150000E-01   1.909241577260000E-01
   1.941892008080000E-01   1.975100552460000E-01   2.008876750550000E-01
   2.043230305610000E-01   2.078171086740000E-01   2.113709131770000E-01
   2.149854650080000E-01   2.186618025580000E-01   2.224009819680000E-01
   2.262040774310000E-01   2.300721815040000E-01   2.340064054170000E-01
   2.380078793980000E-01   2.420777529910000E-01   2.462171953940000E-01
   2.504273957880000E-01   2.547095636810000E-01   2.590649292590000E-01
   2.634947437320000E-01   2.680002797020000E-01   2.725828315210000E-01
   2.772437156680000E-01   2.819842711240000E-01   2.868058597610000E-01
   2.917098667250000E-01   2.966977008450000E-01   3.017707950280000E-01
   3.069306066760000E-01   3.121786181030000E-01   3.175163369610000E-01
   3.229452966740000E-01   3.284670568760000E-01   3.340832038630000E-01
   3.397953510440000E-01   3.456051394100000E-01   3.515142379990000E-01
   3.575243443820000E-01   3.636371851460000E-01   3.698545163910000E-01
   3.761781242370000E-01   3.826098253340000E-01   3.891514673850000E-01
   3.958049296770000E-01   4.025721236220000E-01   4.094549933020000E-01
   4.164555160340000E-01   4.235757029320000E-01   4.308175994880000E-01
   4.381832861590000E-01   4.456748789640000E-01   4.532945300920000E-01
   4.610444285230000E-01   4.689268006510000E-01   4.769439109300000E-01
   4.850980625200000E-01   4.933915979520000E-01   5.018268997970000E-01
   5.104063913550000E-01   5.191325373480000E-01   5.280078446270000E-01
   5.370348628990000E-01   5.462161854490000E-01   5.555544498950000E-01
   5.650523389390000E-01   5.747125811410000E-01   5.845379517010000E-01
   5.945312732590000E-01   6.046954167020000E-01   6.150333019920000E-01
   6.255478990030000E-01   6.362422283760000E-01   6.471193623840000E-01
   6.581824258170000E-01   6.694345968810000E-01   6.808791081050000E-01
   6.925192472760000E-01   7.043583583820000E-01   7.163998425680000E-01
   7.286471591220000E-01   7.411038264599999E-01   7.537734231410000E-01
   7.666595888960001E-01   7.797660256700000E-01   7.930964986890000E-01
   8.066548375400000E-01   8.204449372720000E-01   8.344707595130000E-01
   8.487363336100000E-01   8.632457577879999E-01   8.780032003220000E-01
   8.930129007410000E-01   9.082791710400000E-01   9.238063969250000E-01
   9.395990390660000E-01   9.556616343840000E-01   9.719987973520000E-01
   9.886152213200000E-01   1.005515679870000E+00   1.022705028160000E+00
   1.040188204380000E+00   1.057970231100000E+00   1.076056216740000E+00
   1.094451357070000E+00   1.113160936650000E+00   1.132190330380000E+00
   1.151545005040000E+00   1.171230520860000E+00   1.191252533090000E+00
   1.211616793680000E+00   1.232329152880000E+00   1.253395560950000E+00
   1.274822069870000E+00   1.296614835060000E+00   1.318780117160000E+00
   1.341324283810000E+00   1.364253811540000E+00   1.387575287540000E+00
   1.411295411620000E+00   1.435420998120000E+00   1.459958977850000E+00
   1.484916400100000E+00   1.510300434660000E+00   1.536118373850000E+00
   1.562377634690000E+00   1.589085760940000E+00   1.616250425340000E+00
   1.643879431760000E+00   1.671980717490000E+00   1.700562355480000E+00
   1.729632556680000E+00   1.759199672400000E+00   1.789272196700000E+00
   1.819858768830000E+00   1.850968175730000E+00   1.882609354520000E+00
   1.914791395100000E+00   1.947523542750000E+00   1.980815200790000E+00
   2.014675933250000E+00   2.049115467690000E+00   2.084143697900000E+00
   2.119770686810000E+00   2.156006669390000E+00   2.192862055510000E+00
   2.230347433020000E+00   2.268473570750000E+00   2.307251421590000E+00
   2.346692125680000E+00   2.386807013550000E+00   2.427607609450000E+00
   2.469105634590000E+00   2.511313010560000E+00   2.554241862720000E+00
   2.597904523690000E+00   2.642313536910000E+00   2.687481660240000E+00
   2.733421869600000E+00   2.780147362720000E+00   2.827671562940000E+00
   2.876008123030000E+00   2.925170929160000E+00   2.975174104850000E+00
   3.026032015040000E+00   3.077759270230000E+00   3.130370730650000E+00
   3.183881510570000E+00   3.238306982590000E+00   3.293662782090000E+00
   3.349964811730000E+00   3.407229245990000E+00   3.465472535840000E+00
   3.524711413440000E+00   3.584962896980000E+00   3.646244295550000E+00
   3.708573214090000E+00   3.771967558520000E+00   3.836445540780000E+00
   3.902025684170000E+00   3.968726828580000E+00   4.036568135970000E+00
   4.105569095830000E+00   4.175749530800000E+00   4.247129602350000E+00
   4.319729816620000E+00   4.393571030220000E+00   4.468674456320000E+00
   4.545061670670000E+00   4.622754617840000E+00   4.701775617520000E+00
   4.782147370900000E+00   4.863892967240000E+00   4.947035890460000E+00
   5.031600025920000E+00   5.117609667260000E+00   5.205089523370000E+00
   5.294064725540000E+00   5.384560834620000E+00   5.476603848390000E+00
   5.570220209010000E+00   5.665436810670000E+00   5.762281007250000E+00
   5.860780620220000E+00   5.960963946600000E+00   6.062859767130000E+00
   6.166497354500000E+00   6.271906481790000E+00   6.379117431000000E+00
   6.488161001760000E+00   6.599068520180000E+00   6.711871847850000E+00
   6.826603390970000E+00   6.943296109700000E+00   7.061983527600000E+00
   7.182699741270000E+00   7.305479430130000E+00   7.430357866430000E+00
   7.557370925310000E+00   7.686555095170000E+00   7.817947488120000E+00
   7.951585850660000E+00   8.087508574499999E+00   8.225754707609999E+00
   8.366363965420000E+00   8.509376742260001E+00   8.654834122930000E+00
   8.802777894520000E+00   8.953250558420001E+00   9.106295342499999E+00
   9.261956213570000E+00   9.420277889990000E+00   9.581305854509999E+00
   9.745086367360001E+00   9.911666479499999E+00   1.008109404620000E+01
   1.025341774060000E+01   1.042868706820000E+01   1.060695238020000E+01
   1.078826488900000E+01   1.097267668210000E+01   1.116024073750000E+01
   1.135101093850000E+01   1.154504209000000E+01   1.174238993320000E+01
   1.194311116230000E+01   1.214726344070000E+01   1.235490541740000E+01
   1.256609674390000E+01   1.278089809140000E+01   1.299937116810000E+01
   1.322157873720000E+01   1.344758463460000E+01   1.367745378730000E+01
   1.391125223240000E+01   1.414904713570000E+01   1.439090681090000E+01
   1.463690073980000E+01   1.488709959150000E+01   1.514157524350000E+01
   1.540040080150000E+01   1.566365062130000E+01   1.593140032930000E+01
   1.620372684490000E+01   1.648070840230000E+01   1.676242457280000E+01
   1.704895628800000E+01   1.734038586310000E+01   1.763679702000000E+01
   1.793827491200000E+01   1.824490614770000E+01   1.855677881660000E+01
   1.887398251340000E+01   1.919660836470000E+01   1.952474905480000E+01
   1.985849885190000E+01   2.019795363600000E+01   2.054321092600000E+01
   2.089436990740000E+01   2.125153146160000E+01   2.161479819410000E+01
   2.198427446440000E+01   2.236006641580000E+01   2.274228200630000E+01
   2.313103103880000E+01   2.352642519350000E+01   2.392857805940000E+01
   2.433760516740000E+01   2.475362402290000E+01   2.517675414010000E+01
   2.560711707620000E+01   2.604483646600000E+01   2.649003805790000E+01
   2.694284974980000E+01   2.740340162550000E+01   2.787182599280000E+01
   2.834825742090000E+01   2.883283277930000E+01   2.932569127730000E+01
   2.982697450340000E+01   3.033682646670000E+01   3.085539363770000E+01
   3.138282499080000E+01   3.191927204680000E+01   3.246488891650000E+01
   3.301983234510000E+01   3.358426175720000E+01   3.415833930240000E+01
   3.474222990200000E+01   3.533610129650000E+01   3.594012409370000E+01
   3.655447181760000E+01   3.717932095840000E+01   3.781485102330000E+01
   3.846124458770000E+01   3.911868734800000E+01   3.978736817470000E+01
   4.046747916690000E+01   4.115921570730000E+01   4.186277651860000E+01
   4.257836372000000E+01   4.330618288590000E+01   4.404644310470000E+01
   4.479935703880000E+01   4.556514098580000E+01   4.634401494070000E+01
   4.713620265890000E+01   4.794193172050000E+01   4.876143359590000E+01
   4.959494371210000E+01   5.044270152060000E+01   5.130495056560000E+01
   5.218193855470000E+01   5.307391742950000E+01   5.398114343840000E+01
   5.490387720970000E+01   5.584238382710000E+01   5.679693290530000E+01
   5.776779866780000E+01   5.875526002560000E+01   5.975960065710000E+01
   6.078110909010000E+01   6.182007878410000E+01   6.287680821510000E+01
   6.395160096080000E+01   6.504476578860000E+01   6.615661674350000E+01
   6.728747323870000E+01   6.843766014740000E+01   6.960750789620000E+01
   7.079735255960000E+01   7.200753595690000E+01   7.323840575040001E+01
   7.449031554530001E+01   7.576362499090000E+01   7.705869988440000E+01
   7.837591227590001E+01   7.971564057480001E+01   8.107826965930001E+01
   8.246419098619999E+01   8.387380270400000E+01   8.530750976690000E+01
   8.676572405109999E+01   8.824886447340000E+01   8.975735711130000E+01
   9.129163532560000E+01   9.285213988469999E+01   9.443931909139999E+01
   9.605362891160000E+01   9.769553310510000E+01   9.936550335939999E+01
   1.010640194250000E+02   1.027915692510000E+02   1.045486491310000E+02
   1.063357638400000E+02   1.081534267800000E+02   1.100021601320000E+02
   1.118824950000000E+02   1.137949715680000E+02   1.157401392540000E+02
   1.177185568670000E+02   1.197307927680000E+02   1.217774250340000E+02
   1.238590416220000E+02   1.259762405400000E+02   1.281296300190000E+02
   1.303198286860000E+02   1.325474657420000E+02   1.348131811450000E+02
   1.371176257910000E+02   1.394614617010000E+02   1.418453622160000E+02
   1.442700121830000E+02   1.467361081570000E+02   1.492443586000000E+02
   1.517954840840000E+02   1.543902174970000E+02   1.570293042580000E+02
   1.597135025230000E+02   1.624435834110000E+02   1.652203312220000E+02
   1.680445436620000E+02   1.709170320710000E+02   1.738386216610000E+02
   1.768101517480000E+02   1.798324759950000E+02   1.829064626560000E+02
   1.860329948300000E+02   1.892129707070000E+02   1.924473038340000E+02
   1.957369233720000E+02   1.990827743660000E+02   2.024858180120000E+02
    </PP_R>
    <PP_RAB>
   1.448715474380000E-06   1.473479243570000E-06   1.498666314830000E-06
   1.524283923920000E-06   1.550339430290000E-06   1.576840319180000E-06
   1.603794203770000E-06   1.631208827410000E-06   1.659092065780000E-06
   1.687451929190000E-06   1.716296564890000E-06   1.745634259380000E-06
   1.775473440810000E-06   1.805822681410000E-06   1.836690699920000E-06
   1.868086364120000E-06   1.900018693390000E-06   1.932496861260000E-06
   1.965530198090000E-06   1.999128193700000E-06   2.033300500160000E-06
   2.068056934510000E-06   2.103407481600000E-06   2.139362296950000E-06
   2.175931709700000E-06   2.213126225510000E-06   2.250956529670000E-06
   2.289433490080000E-06   2.328568160430000E-06   2.368371783350000E-06
   2.408855793650000E-06   2.450031821610000E-06   2.491911696310000E-06
   2.534507449010000E-06   2.577831316660000E-06   2.621895745360000E-06
   2.666713393970000E-06   2.712297137740000E-06   2.758660071990000E-06
   2.805815515900000E-06   2.853777016310000E-06   2.902558351630000E-06
   2.952173535800000E-06   3.002636822300000E-06   3.053962708260000E-06
   3.106165938610000E-06   3.159261510320000E-06   3.213264676730000E-06
   3.268190951900000E-06   3.324056115100000E-06   3.380876215290000E-06
   3.438667575790000E-06   3.497446798950000E-06   3.557230770890000E-06
   3.618036666400000E-06   3.679881953830000E-06   3.742784400140000E-06
   3.806762075980000E-06   3.871833360900000E-06   3.938016948620000E-06
   4.005331852400000E-06   4.073797410530000E-06   4.143433291810000E-06
   4.214259501300000E-06   4.286296386000000E-06   4.359564640710000E-06
   4.434085313970000E-06   4.509879814140000E-06   4.586969915520000E-06
   4.665377764590000E-06   4.745125886410000E-06   4.826237191070000E-06
   4.908734980290000E-06   4.992642954080000E-06   5.077985217580000E-06
   5.164786287970000E-06   5.253071101520000E-06   5.342865020740000E-06
   5.434193841700000E-06   5.527083801390000E-06   5.621561585300000E-06
   5.717654335070000E-06   5.815389656290000E-06   5.914795626430000E-06
   6.015900802900000E-06   6.118734231250000E-06   6.223325453540000E-06
   6.329704516820000E-06   6.437901981710000E-06   6.547948931260000E-06
   6.659876979840000E-06   6.773718282190000E-06   6.889505542730000E-06
   7.007272024900000E-06   7.127051560720000E-06   7.248878560540000E-06
   7.372788022900000E-06   7.498815544590000E-06   7.626997330870000E-06
   7.757370205910000E-06   7.889971623280000E-06   8.024839676829999E-06
   8.162013111530000E-06   8.301531334660000E-06   8.443434427090000E-06
   8.587763154849999E-06   8.734558980790000E-06   8.883864076500000E-06
   9.035721334440000E-06   9.190174380280000E-06   9.347267585380000E-06
   9.507046079580000E-06   9.669555764140001E-06   9.834843324970000E-06
   1.000295624600000E-05   1.017394282270000E-05   1.034785217640000E-05
   1.052473426770000E-05   1.070463991160000E-05   1.088762079130000E-05
   1.107372947390000E-05   1.126301942460000E-05   1.145554502280000E-05
   1.165136157750000E-05   1.185052534280000E-05   1.205309353480000E-05
   1.225912434730000E-05   1.246867696900000E-05   1.268181160040000E-05
   1.289858947080000E-05   1.311907285630000E-05   1.334332509770000E-05
   1.357141061810000E-05   1.380339494210000E-05   1.403934471450000E-05
   1.427932771890000E-05   1.452341289780000E-05   1.477167037220000E-05
   1.502417146170000E-05   1.528098870490000E-05   1.554219588040000E-05
   1.580786802810000E-05   1.607808147040000E-05   1.635291383430000E-05
   1.663244407400000E-05   1.691675249300000E-05   1.720592076760000E-05
   1.750003197030000E-05   1.779917059350000E-05   1.810342257410000E-05
   1.841287531760000E-05   1.872761772390000E-05   1.904774021240000E-05
   1.937333474800000E-05   1.970449486780000E-05   2.004131570770000E-05
   2.038389402980000E-05   2.073232825020000E-05   2.108671846730000E-05
   2.144716649060000E-05   2.181377586980000E-05   2.218665192470000E-05
   2.256590177540000E-05   2.295163437300000E-05   2.334396053100000E-05
   2.374299295710000E-05   2.414884628560000E-05   2.456163711040000E-05
   2.498148401830000E-05   2.540850762310000E-05   2.584283060040000E-05
   2.628457772290000E-05   2.673387589600000E-05   2.719085419430000E-05
   2.765564389880000E-05   2.812837853470000E-05   2.860919390940000E-05
   2.909822815190000E-05   2.959562175230000E-05   3.010151760210000E-05
   3.061606103540000E-05   3.113939987060000E-05   3.167168445280000E-05
   3.221306769710000E-05   3.276370513240000E-05   3.332375494610000E-05
   3.389337802990000E-05   3.447273802520000E-05   3.506200137120000E-05
   3.566133735160000E-05   3.627091814420000E-05   3.689091886970000E-05
   3.752151764230000E-05   3.816289562080000E-05   3.881523706080000E-05
   3.947872936730000E-05   4.015356314880000E-05   4.083993227190000E-05
   4.153803391740000E-05   4.224806863610000E-05   4.297024040750000E-05
   4.370475669740000E-05   4.445182851820000E-05   4.521167048920000E-05
   4.598450089810000E-05   4.677054176440000E-05   4.757001890230000E-05
   4.838316198600000E-05   4.921020461600000E-05   5.005138438550000E-05
   5.090694294910000E-05   5.177712609240000E-05   5.266218380210000E-05
   5.356237033820000E-05   5.447794430670000E-05   5.540916873450000E-05
   5.635631114420000E-05   5.731964363160000E-05   5.829944294340000E-05
   5.929599055700000E-05   6.030957276130000E-05   6.134048073880000E-05
   6.238901064940000E-05   6.345546371549999E-05   6.454014630850000E-05
   6.564337003650000E-05   6.676545183450001E-05   6.790671405480000E-05
   6.906748456010001E-05   7.024809681710000E-05   7.144888999300000E-05
   7.267020905240000E-05   7.391240485660001E-05   7.517583426450000E-05
   7.646086023480000E-05   7.776785193070001E-05   7.909718482559999E-05
   8.044924081110000E-05   8.182440830670000E-05   8.322308237150000E-05
   8.464566481729999E-05   8.609256432480000E-05   8.756419655990001E-05
   8.906098429430000E-05   9.058335752610000E-05   9.213175360369999E-05
   9.370661735120000E-05   9.530840119660001E-05   9.693756530139999E-05
   9.859457769279999E-05   1.002799143990000E-04   1.019940595830000E-04
   1.037375056870000E-04   1.055107535700000E-04   1.073143126500000E-04
   1.091487010550000E-04   1.110144457700000E-04   1.129120827870000E-04
   1.148421572610000E-04   1.168052236640000E-04   1.188018459480000E-04
   1.208325977030000E-04   1.228980623250000E-04   1.249988331820000E-04
   1.271355137850000E-04   1.293087179610000E-04   1.315190700300000E-04
   1.337672049820000E-04   1.360537686640000E-04   1.383794179610000E-04
   1.407448209870000E-04   1.431506572760000E-04   1.455976179790000E-04
   1.480864060610000E-04   1.506177365010000E-04   1.531923365020000E-04
   1.558109456980000E-04   1.584743163620000E-04   1.611832136320000E-04
   1.639384157190000E-04   1.667407141410000E-04   1.695909139440000E-04
   1.724898339340000E-04   1.754383069160000E-04   1.784371799290000E-04
   1.814873144910000E-04   1.845895868460000E-04   1.877448882170000E-04
   1.909541250620000E-04   1.942182193320000E-04   1.975381087370000E-04
   2.009147470190000E-04   2.043491042200000E-04   2.078421669650000E-04
   2.113949387420000E-04   2.150084401940000E-04   2.186837094100000E-04
   2.224218022250000E-04   2.262237925190000E-04   2.300907725310000E-04
   2.340238531690000E-04   2.380241643320000E-04   2.420928552320000E-04