<UPF version="2.0.1">
  <PP_INFO>
    Generated by new atomic code, or converted to UPF format
    Author: 
    Generation date: 
    Pseudopotential type: US
    Element: F
    Functional:  SLA  PZ   NOGX NOGC
    Suggested minimum cutoff for wavefunctions:   0. Ry
    Suggested minimum cutoff for charge density:   0. Ry
    The Pseudo was generated with a Non-Relativistic Calculation
    L component and cutoff radius for Local Potential:  0   0.0000
    Valence configuration: 
    nl pn  l   occ       Rcut    Rcut US       E pseu
    2S  1  0  2.00      0.000      0.000     0.000000
    2P  2  1  5.00      0.000      0.000     0.000000
    Generation configuration: not available.
  </PP_INFO>
    <!-- END OF HUMAN READABLE SECTION -->
  <PP_HEADER generated="Generated by new atomic code, or converted to UPF format" author="" date="" comment="" element="F" pseudo_type="US" relativistic="no" is_ultrasoft="true" is_paw="false" is_coulomb="false" has_so="false" has_wfc="false" has_gipaw="false" paw_as_gipaw="false" core_correction="false" functional=" SLA  PZ   NOGX NOGC" z_valence="7.0000000000000000" total_psenergy="-48.224101967099998" wfc_cutoff="0.0000000000000000" rho_cutoff="0.0000000000000000" l_max="1" l_max_rho="0" l_local="0" mesh_size="799" number_of_wfc="2" number_of_proj="4"/>
  <PP_MESH>
    <PP_R>
   0.000000000000000E+00   4.707867675550000E-06   9.496209778650001E-06
   1.436640190730000E-05   1.931984317350000E-05   2.435795660510000E-05
   2.948218955450000E-05   3.469401411480000E-05   3.999492754220000E-05
   4.538645268660000E-05   5.087013842890000E-05   5.644756012580000E-05
   6.212032006270000E-05   6.789004791380000E-05   7.375840121020000E-05
   7.972706581620000E-05   8.579775641370001E-05   9.197221699460000E-05
   9.825222136200000E-05   1.046395736400000E-04   1.111361087900000E-04
   1.177436931420000E-04   1.244642249270000E-04   1.312996348240000E-04
   1.382518865140000E-04   1.453229772430000E-04   1.525149384000000E-04
   1.598298360950000E-04   1.672697717580000E-04   1.748368827380000E-04
   1.825333429190000E-04   1.903613633460000E-04   1.983231928570000E-04
   2.064211187320000E-04   2.146574673480000E-04   2.230346048490000E-04
   2.315549378240000E-04   2.402209140010000E-04   2.490350229460000E-04
   2.579997967820000E-04   2.671178109150000E-04   2.763916847750000E-04
   2.858240825660000E-04   2.954177140330000E-04   3.051753352410000E-04
   3.150997493660000E-04   3.251938074990000E-04   3.354604094690000E-04
   3.459025046710000E-04   3.565230929180000E-04   3.673252252990000E-04
   3.783120050560000E-04   3.894865884810000E-04   4.008521858140000E-04
   4.124120621710000E-04   4.241695384820000E-04   4.361279924410000E-04
   4.482908594810000E-04   4.606616337590000E-04   4.732438691580000E-04
   4.860411803110000E-04   4.990572436380000E-04   5.122957984030000E-04
   5.257606477850000E-04   5.394556599759999E-04   5.533847692870000E-04
   5.675519772820000E-04   5.819613539260000E-04   5.966170387540000E-04
   6.115232420600000E-04   6.266842461090000E-04   6.421044063620000E-04
   6.577881527350000E-04   6.737399908630000E-04   6.899645034020000E-04
   7.064663513399999E-04   7.232502753370000E-04   7.403210970920000E-04
   7.576837207200001E-04   7.753431341680000E-04   7.933044106420000E-04
   8.115727100710000E-04   8.301532805840000E-04   8.490514600180000E-04
   8.682726774540000E-04   8.878224547780000E-04   9.077064082610000E-04
   9.279302501780000E-04   9.484997904490000E-04   9.694209383030000E-04
   9.906997039810001E-04   1.012342200460000E-03   1.034354645220000E-03
   1.056743361990000E-03   1.079514782640000E-03   1.102675448940000E-03
   1.126232014500000E-03   1.150191246680000E-03   1.174560028500000E-03
   1.199345360630000E-03   1.224554363420000E-03   1.250194278930000E-03
   1.276272473020000E-03   1.302796437440000E-03   1.329773792010000E-03
   1.357212286810000E-03   1.385119804380000E-03   1.413504362020000E-03
   1.442374114060000E-03   1.471737354220000E-03   1.501602517990000E-03
   1.531978185050000E-03   1.562873081750000E-03   1.594296083600000E-03
   1.626256217800000E-03   1.658762665890000E-03   1.691824766350000E-03
   1.725452017270000E-03   1.759654079120000E-03   1.794440777480000E-03
   1.829822105900000E-03   1.865808228750000E-03   1.902409484150000E-03
   1.939636386930000E-03   1.977499631660000E-03   2.016010095710000E-03
   2.055178842400000E-03   2.095017124150000E-03   2.135536385730000E-03
   2.176748267540000E-03   2.218664608950000E-03   2.261297451710000E-03
   2.304659043430000E-03   2.348761841040000E-03   2.393618514420000E-03
   2.439241950030000E-03   2.485645254610000E-03   2.532841758910000E-03
   2.580845021590000E-03   2.629668833040000E-03   2.679327219420000E-03
   2.729834446600000E-03   2.781205024350000E-03   2.833453710430000E-03
   2.886595514880000E-03   2.940645704310000E-03   2.995619806290000E-03
   3.051533613830000E-03   3.108403189870000E-03   3.166244871950000E-03
   3.225075276860000E-03   3.284911305430000E-03   3.345770147410000E-03
   3.407669286350000E-03   3.470626504690000E-03   3.534659888810000E-03
   3.599787834260000E-03   3.666029051050000E-03   3.733402569000000E-03
   3.801927743200000E-03   3.871624259620000E-03   3.942512140730000E-03
   4.014611751220000E-03   4.087943803940000E-03   4.162529365750000E-03
   4.238389863660000E-03   4.315547090900000E-03   4.394023213250000E-03
   4.473840775400000E-03   4.555022707380000E-03   4.637592331190000E-03
   4.721573367480000E-03   4.806989942380000E-03   4.893866594420000E-03
   4.982228281580000E-03   5.072100388460000E-03   5.163508733590000E-03
   5.256479576800000E-03   5.351039626830000E-03   5.447216048940000E-03
   5.545036472760000E-03   5.644529000210000E-03   5.745722213560000E-03
   5.848645183670000E-03   5.953327478320000E-03   6.059799170690000E-03
   6.168090848050000E-03   6.278233620500000E-03   6.390259129930000E-03
   6.504199559100000E-03   6.620087640890000E-03   6.737956667700000E-03
   6.857840501030000E-03   6.979773581170000E-03   7.103790937150000E-03
   7.229928196750000E-03   7.358221596760000E-03   7.488707993400000E-03
   7.621424872880000E-03   7.756410362200000E-03   7.893703240060000E-03
   8.033342948070000E-03   8.175369602000000E-03   8.319824003360000E-03
   8.466747651120000E-03   8.616182753580000E-03   8.768172240570001E-03
   8.922759775719999E-03   9.079989769030000E-03   9.239907389650000E-03
   9.402558578810000E-03   9.567990063060000E-03   9.736249367640001E-03
   9.907384830220000E-03   1.008144561470000E-02   1.025848172530000E-02
   1.043854402120000E-02   1.062168423080000E-02   1.080795496660000E-02
   1.099740974070000E-02   1.119010297980000E-02   1.138609004080000E-02
   1.158542722720000E-02   1.178817180450000E-02   1.199438201750000E-02
   1.220411710620000E-02   1.241743732360000E-02   1.263440395240000E-02
   1.285507932280000E-02   1.307952683080000E-02   1.330781095570000E-02
   1.353999727910000E-02   1.377615250370000E-02   1.401634447220000E-02
   1.426064218720000E-02   1.450911583080000E-02   1.476183678440000E-02
   1.501887765010000E-02   1.528031227070000E-02   1.554621575120000E-02
   1.581666448060000E-02   1.609173615370000E-02   1.637150979300000E-02
   1.665606577230000E-02   1.694548583900000E-02   1.723985313770000E-02
   1.753925223460000E-02   1.784376914120000E-02   1.815349133930000E-02
   1.846850780620000E-02   1.878890903990000E-02   1.911478708560000E-02
   1.944623556160000E-02   1.978334968680000E-02   2.012622630750000E-02
   2.047496392540000E-02   2.082966272630000E-02   2.119042460810000E-02
   2.155735321080000E-02   2.193055394590000E-02   2.231013402670000E-02
   2.269620249920000E-02   2.308887027350000E-02   2.348825015530000E-02
   2.389445687890000E-02   2.430760713950000E-02   2.472781962720000E-02
   2.515521506090000E-02   2.558991622310000E-02   2.603204799500000E-02
   2.648173739240000E-02   2.693911360260000E-02   2.740430802070000E-02
   2.787745428820000E-02   2.835868833070000E-02   2.884814839760000E-02
   2.934597510130000E-02   2.985231145770000E-02   3.036730292750000E-02
   3.089109745770000E-02   3.142384552430000E-02   3.196570017570000E-02
   3.251681707610000E-02   3.307735455080000E-02   3.364747363130000E-02
   3.422733810190000E-02   3.481711454620000E-02   3.541697239590000E-02
   3.602708397820000E-02   3.664762456660000E-02   3.727877243030000E-02
   3.792070888600000E-02   3.857361834940000E-02   3.923768838890000E-02
   3.991310977890000E-02   4.060007655500000E-02   4.129878606930000E-02
   4.200943904770000E-02   4.273223964700000E-02   4.346739551370000E-02
   4.421511784400000E-02   4.497562144400000E-02   4.574912479170000E-02
   4.653585009960000E-02   4.733602337870000E-02   4.814987450320000E-02
   4.897763727690000E-02   4.981954949990000E-02   5.067585303750000E-02
   5.154679388890000E-02   5.243262225870000E-02   5.333359262820000E-02
   5.424996382880000E-02   5.518199911620000E-02   5.612996624600000E-02
   5.709413755090000E-02   5.807479001860000E-02   5.907220537170000E-02
   6.008667014830000E-02   6.111847578430000E-02   6.216791869780000E-02
   6.323530037320001E-02   6.432092744869999E-02   6.542511180400000E-02
   6.654817064980000E-02   6.769042661919999E-02   6.885220786019999E-02
   7.003384813020000E-02   7.123568689150001E-02   7.245806940900000E-02
   7.370134684980000E-02   7.496587638330000E-02   7.625202128430000E-02
   7.756015103750000E-02   7.889064144320000E-02   8.024387472550000E-02
   8.162023964210000E-02   8.302013159620000E-02   8.444395274950001E-02
   8.589211213830000E-02   8.736502579079999E-02   8.886311684650000E-02
   9.038681567810000E-02   9.193656001470001E-02   9.351279506800000E-02
   9.511597365960001E-02   9.674655635180000E-02   9.840501157950000E-02
   1.000918157850000E-01   1.018074535540000E-01   1.035524177560000E-01
   1.053272096860000E-01   1.071323392070000E-01   1.089683248980000E-01
   1.108356942030000E-01   1.127349835790000E-01   1.146667386560000E-01
   1.166315143910000E-01   1.186298752250000E-01   1.206623952480000E-01
   1.227296583640000E-01   1.248322584580000E-01   1.269707995670000E-01
   1.291458960510000E-01   1.313581727740000E-01   1.336082652800000E-01
   1.358968199770000E-01   1.382244943230000E-01   1.405919570130000E-01
   1.429998881740000E-01   1.454489795570000E-01   1.479399347400000E-01
   1.504734693250000E-01   1.530503111480000E-01   1.556712004850000E-01
   1.583368902680000E-01   1.610481462980000E-01   1.638057474660000E-01
   1.666104859770000E-01   1.694631675780000E-01   1.723646117910000E-01
   1.753156521430000E-01   1.783171364110000E-01   1.813699268640000E-01
   1.844749005090000E-01   1.876329493450000E-01   1.908449806180000E-01
   1.941119170840000E-01   1.974346972690000E-01   2.008142757440000E-01
   2.042516233960000E-01   2.077477277100000E-01   2.113035930470000E-01
   2.149202409400000E-01   2.185987103810000E-01   2.223400581230000E-01
   2.261453589830000E-01   2.300157061510000E-01   2.339522115030000E-01
   2.379560059190000E-01   2.420282396130000E-01   2.461700824590000E-01
   2.503827243280000E-01   2.546673754310000E-01   2.590252666640000E-01
   2.634576499660000E-01   2.679657986750000E-01   2.725510078940000E-01
   2.772145948660000E-01   2.819578993490000E-01   2.867822840010000E-01
   2.916891347770000E-01   2.966798613180000E-01   3.017558973650000E-01
   3.069187011630000E-01   3.121697558870000E-01   3.175105700640000E-01
   3.229426780040000E-01   3.284676402490000E-01   3.340870440130000E-01
   3.398025036420000E-01   3.456156610760000E-01   3.515281863240000E-01
   3.575417779400000E-01   3.636581635110000E-01   3.698791001580000E-01
   3.762063750340000E-01   3.826418058440000E-01   3.891872413630000E-01
   3.958445619670000E-01   4.026156801750000E-01   4.095025412000000E-01
   4.165071235020000E-01   4.236314393630000E-01   4.308775354600000E-01
   4.382474934580000E-01   4.457434306030000E-01   4.533675003310000E-01
   4.611218928910000E-01   4.690088359690000E-01   4.770305953330000E-01
   4.851894754770000E-01   4.934878202910000E-01   5.019280137290000E-01
   5.105124804930000E-01   5.192436867370001E-01   5.281241407660000E-01
   5.371563937630000E-01   5.463430405190000E-01   5.556867201810000E-01
   5.651901170060000E-01   5.748559611370000E-01   5.846870293830000E-01
   5.946861460210000E-01   6.048561836030000E-01   6.152000637840001E-01
   6.257207581599999E-01   6.364212891240000E-01   6.473047307320000E-01
   6.583742095839999E-01   6.696329057280000E-01   6.810840535710000E-01
   6.927309428040000E-01   7.045769193540000E-01   7.166253863410000E-01
   7.288798050560000E-01   7.413436959570000E-01   7.540206396780000E-01
   7.669142780590000E-01   7.800283151940000E-01   7.933665184920000E-01
   8.069327197600000E-01   8.207308163060000E-01   8.347647720550000E-01
   8.490386186920000E-01   8.635564568170000E-01   8.783224571230001E-01
   8.933408615960000E-01   9.086159847340000E-01   9.241522147840000E-01
   9.399540150040000E-01   9.560259249460000E-01   9.723725617570000E-01
   9.889986215120000E-01   1.005908880550000E+00   1.023108196880000E+00
   1.040601511500000E+00   1.058393849930000E+00   1.076490323560000E+00
   1.094896131140000E+00   1.113616560320000E+00   1.132656989110000E+00
   1.152022887450000E+00   1.171719818800000E+00   1.191753441700000E+00
   1.212129511430000E+00   1.232853881630000E+00   1.253932506020000E+00
   1.275371440070000E+00   1.297176842780000E+00   1.319354978420000E+00
   1.341912218330000E+00   1.364855042780000E+00   1.388190042800000E+00
   1.411923922070000E+00   1.436063498880000E+00   1.460615708080000E+00
   1.485587603020000E+00   1.510986357650000E+00   1.536819268550000E+00
   1.563093757010000E+00   1.589817371180000E+00   1.616997788230000E+00
   1.644642816590000E+00   1.672760398120000E+00   1.701358610470000E+00
   1.730445669340000E+00   1.760029930890000E+00   1.790119894110000E+00
   1.820724203250000E+00   1.851851650340000E+00   1.883511177700000E+00
   1.915711880500000E+00   1.948463009370000E+00   1.981773973080000E+00
   2.015654341230000E+00   2.050113846990000E+00   2.085162389900000E+00
   2.120810038750000E+00   2.157067034390000E+00   2.193943792780000E+00
   2.231450907890000E+00   2.269599154790000E+00   2.308399492720000E+00
   2.347863068280000E+00   2.388001218590000E+00   2.428825474570000E+00
   2.470347564220000E+00   2.512579416050000E+00   2.555533162440000E+00
   2.599221143180000E+00   2.643655908990000E+00   2.688850225100000E+00
   2.734817074970000E+00   2.781569663980000E+00   2.829121423260000E+00
   2.877486013500000E+00   2.926677328910000E+00   2.976709501200000E+00
   3.027596903660000E+00   3.079354155240000E+00   3.131996124800000E+00
   3.185537935370000E+00   3.239994968460000E+00   3.295382868530000E+00
   3.351717547450000E+00   3.409015189090000E+00   3.467292253950000E+00
   3.526565483900000E+00   3.586851906990000E+00   3.648168842350000E+00
   3.710533905140000E+00   3.773965011650000E+00   3.838480384390000E+00
   3.904098557400000E+00   3.970838381490000E+00   4.038719029740000E+00
   4.107760002930000E+00   4.177981135200000E+00   4.249402599720000E+00
   4.322044914510000E+00   4.395928948290000E+00   4.471075926510000E+00
   4.547507437440000E+00   4.625245438390000E+00   4.704312261970000E+00
   4.784730622560000E+00   4.866523622780000E+00   4.949714760200000E+00
   5.034327934000000E+00   5.120387451920000E+00   5.207918037200000E+00
   5.296944835670000E+00   5.387493423020000E+00   5.479589812090000E+00
   5.573260460410000E+00   5.668532277730000E+00   5.765432633800000E+00
   5.863989366230000E+00   5.964230788450000E+00   6.066185697890000E+00
   6.169883384210000E+00   6.275353637760000E+00   6.382626758090000E+00
   6.491733562710000E+00   6.602705395880000E+00   6.715574137660000E+00
   6.830372213070000E+00   6.947132601360000E+00   7.065888845530000E+00
   7.186675061970000E+00   7.309525950200000E+00   7.434476802910000E+00
   7.561563516070000E+00   7.690822599220000E+00   7.822291186010000E+00
   7.956007044800000E+00   8.092008589590000E+00   8.230334890980000E+00
   8.371025687440000E+00   8.514121396720000E+00   8.659663127440000E+00
   8.807692690930001E+00   8.958252613210000E+00   9.111386147239999E+00
   9.267137285320000E+00   9.425550771739999E+00   9.586672115630000E+00
   9.750547604019999E+00   9.917224315180000E+00   1.008675013210000E+01
   1.025917375630000E+01   1.043454472170000E+01   1.061291340900000E+01
   1.079433106000000E+01   1.097884979260000E+01   1.116652261550000E+01
   1.135740344330000E+01   1.155154711250000E+01   1.174900939680000E+01
   1.194984702320000E+01   1.215411768860000E+01   1.236188007590000E+01
   1.257319387120000E+01   1.278811978100000E+01   1.300671954920000E+01
   1.322905597540000E+01   1.345519293260000E+01   1.368519538540000E+01
   1.391912940910000E+01   1.415706220850000E+01   1.439906213700000E+01
   1.464519871660000E+01   1.489554265750000E+01   1.515016587870000E+01
   1.540914152850000E+01   1.567254400550000E+01   1.594044898040000E+01
   1.621293341680000E+01   1.649007559450000E+01   1.677195513090000E+01
   1.705865300450000E+01   1.735025157820000E+01   1.764683462260000E+01
   1.794848734020000E+01   1.825529639000000E+01   1.856734991230000E+01
   1.888473755400000E+01   1.920755049460000E+01   1.953588147190000E+01
   1.986982480890000E+01   2.020947644130000E+01   2.055493394430000E+01
   2.090629656120000E+01   2.126366523170000E+01   2.162714262080000E+01
   2.199683314870000E+01   2.237284302020000E+01   2.275528025560000E+01
   2.314425472190000E+01   2.353987816380000E+01   2.394226423630000E+01
   2.435152853710000E+01   2.476778864000000E+01   2.519116412840000E+01
   2.562177662990000E+01   2.605974985120000E+01   2.650520961340000E+01
   2.695828388860000E+01   2.741910283620000E+01   2.788779884060000E+01
   2.836450654900000E+01   2.884936291040000E+01   2.934250721470000E+01
   2.984408113260000E+01   3.035422875660000E+01   3.087309664230000E+01
   3.140083385040000E+01   3.193759198950000E+01   3.248352525990000E+01
   3.303879049760000E+01   3.360354721970000E+01   3.417795766970000E+01
   3.476218686470000E+01   3.535640264240000E+01   3.596077570960000E+01
   3.657547969090000E+01   3.720069117880000E+01   3.783658978460000E+01
   3.848335818960000E+01   3.914118219780000E+01   3.981025078940000E+01
   4.049075617480000E+01   4.118289385000000E+01   4.188686265280000E+01
   4.260286481990000E+01   4.333110604470000E+01   4.407179553690000E+01
   4.482514608230000E+01   4.559137410380000E+01   4.637069972410000E+01
   4.716334682820000E+01   4.796954312820000E+01   4.878952022890000E+01
   4.962351369380000E+01   5.047176311300000E+01   5.133451217220000E+01
   5.221200872250000E+01   5.310450485170000E+01   5.401225695670000E+01
   5.493552581700000E+01   5.587457666990000E+01   5.682967928660000E+01
   5.780110804960000E+01   5.878914203160000E+01   5.979406507560000E+01
   6.081616587650000E+01   6.185573806420000E+01   6.291308028750000E+01
   6.398849630060000E+01   6.508229504950000E+01   6.619479076150000E+01
   6.732630303510000E+01   6.847715693180000E+01   6.964768306980000E+01
   7.083821771850000E+01   7.204910289550000E+01   7.328068646460000E+01
   7.453332223610001E+01   7.580737006790000E+01   7.710319596930000E+01
   7.842117220599999E+01   7.976167740699999E+01   8.112509667370000E+01
   8.251182168990000E+01   8.392225083500000E+01   8.535678929780001E+01
   8.681584919360000E+01   8.829984968210000E+01   8.980921708779999E+01
   9.134438502280000E+01   9.290579451120000E+01   9.449389411570000E+01
   9.610914006650000E+01   9.775199639260001E+01   9.942293505470001E+01
   1.011224360810000E+02   1.028509877060000E+02   1.046090865090000E+02
   1.063972375570000E+02   1.082159545510000E+02   1.100657599740000E+02
   1.119471852400000E+02   1.138607708440000E+02   1.158070665240000E+02
   1.177866314120000E+02   1.198000341990000E+02   1.218478532970000E+02
   1.239306770050000E+02   1.260491036770000E+02   1.282037418960000E+02
   1.303952106490000E+02   1.326241395010000E+02   1.348911687820000E+02
   1.371969497640000E+02   1.395421448540000E+02   1.419274277820000E+02
   1.443534837920000E+02   1.468210098430000E+02   1.493307148090000E+02
   1.518833196790000E+02   1.544795577660000E+02   1.571201749200000E+02
   1.598059297390000E+02   1.625375937890000E+02   1.653159518230000E+02
   1.681418020100000E+02   1.710159561620000E+02   1.739392399680000E+02
   1.769124932310000E+02   1.799365701090000E+02   1.830123393610000E+02
   1.861406845960000E+02   1.893225045270000E+02   1.925587132280000E+02
   1.958502404010000E+02   1.991980316380000E+02   2.026030486930000E+02
   2.060662697630000E+02
    </PP_R>
    <PP_RAB>
   4.668083195230000E-06   4.747877562610000E-06   4.829035903340000E-06
   4.911581532640000E-06   4.995538164270000E-06   5.080929917350000E-06
   5.167781323270000E-06   5.256117332770000E-06   5.345963323060000E-06
   5.437345105170000E-06   5.530288931310000E-06   5.624821502450000E-06
   5.720969975950000E-06   5.818761973430000E-06   5.918225588620000E-06
   6.019389395500000E-06   6.122282456480000E-06   6.226934330730000E-06
   6.333375082720000E-06   6.441635290820000E-06   6.551746056080000E-06
   6.663739011200000E-06   6.777646329590000E-06   6.893500734620000E-06
   7.011335509020000E-06   7.131184504430000E-06   7.253082151150000E-06
   7.377063468030000E-06   7.503164072480000E-06   7.631420190790000E-06
   7.761868668429999E-06   7.894546980750000E-06   8.029493243650000E-06
   8.166746224580000E-06   8.306345353670000E-06   8.448330735040000E-06
   8.592743158350000E-06   8.739624110500001E-06   8.889015787529999E-06
   9.040961106779999E-06   9.195503719220001E-06   9.352688021930000E-06
   9.512559170920001E-06   9.675163094089999E-06   9.840546504400000E-06
   1.000875691330000E-05   1.017984264440000E-05   1.035385284720000E-05
   1.053083751170000E-05   1.071084748200000E-05   1.089393447150000E-05
   1.108015107750000E-05   1.126955079660000E-05   1.146218803950000E-05
   1.165811814730000E-05   1.185739740680000E-05   1.206008306710000E-05
   1.226623335590000E-05   1.247590749620000E-05   1.268916572330000E-05
   1.290606930220000E-05   1.312668054500000E-05   1.335106282920000E-05
   1.357928061530000E-05   1.381139946600000E-05   1.404748606450000E-05
   1.428760823390000E-05   1.453183495670000E-05   1.478023639440000E-05
   1.503288390810000E-05   1.528985007840000E-05   1.555120872680000E-05
   1.581703493650000E-05   1.608740507430000E-05   1.636239681220000E-05
   1.664208915010000E-05   1.692656243820000E-05   1.721589840020000E-05
   1.751018015660000E-05   1.780949224890000E-05   1.811392066370000E-05
   1.842355285750000E-05   1.873847778140000E-05   1.905878590740000E-05
   1.938456925380000E-05   1.971592141180000E-05   2.005293757250000E-05
   2.039571455420000E-05   2.074435083000000E-05   2.109894655630000E-05
   2.145960360170000E-05   2.182642557600000E-05   2.219951785990000E-05
   2.257898763580000E-05   2.296494391790000E-05   2.335749758400000E-05
   2.375676140710000E-05   2.416285008810000E-05   2.457588028840000E-05
   2.499597066350000E-05   2.542324189720000E-05   2.585781673650000E-05
   2.629982002610000E-05   2.674937874500000E-05   2.720662204290000E-05
   2.767168127680000E-05   2.814469004920000E-05   2.862578424650000E-05
   2.911510207760000E-05   2.961278411420000E-05   3.011897333070000E-05
   3.063381514530000E-05   3.115745746220000E-05   3.169005071380000E-05
   3.223174790370000E-05   3.278270465100000E-05   3.334307923500000E-05
   3.391303264050000E-05   3.449272860400000E-05   3.508233366100000E-05
   3.568201719350000E-05   3.629195147920000E-05   3.691231174020000E-05
   3.754327619400000E-05   3.818502610470000E-05   3.883774583440000E-05
   3.950162289690000E-05   4.017684801140000E-05   4.086361515680000E-05
   4.156212162800000E-05   4.227256809260000E-05   4.299515864800000E-05
   4.373010088040000E-05   4.447760592470000E-05   4.523788852440000E-05
   4.601116709410000E-05   4.679766378180000E-05   4.759760453270000E-05
   4.841121915430000E-05   4.923874138240000E-05   5.008040894810000E-05
   5.093646364610000E-05   5.180715140460000E-05   5.269272235510000E-05
   5.359343090500000E-05   5.450953581060000E-05   5.544130025110000E-05
   5.638899190420000E-05   5.735288302360000E-05   5.833325051640000E-05
   5.933037602330000E-05   6.034454599920000E-05   6.137605179540000E-05
   6.242518974350000E-05   6.349226124080000E-05   6.457757283600000E-05
   6.568143631830000E-05   6.680416880630000E-05   6.794609283919999E-05
   6.910753646979999E-05   7.028883335830000E-05   7.149032286860000E-05
   7.271235016510000E-05   7.395526631290000E-05   7.521942837750000E-05
   7.650519952840000E-05   7.781294914260000E-05   7.914305291140000E-05
   8.049589294780001E-05   8.187185789659999E-05   8.327134304580000E-05
   8.469475044060000E-05   8.614248899819999E-05   8.761497462600000E-05
   8.911263034060000E-05   9.063588638950000E-05   9.218518037470000E-05
   9.376095737830001E-05   9.536367009059999E-05   9.699377894000000E-05
   9.865175222510000E-05   1.003380662500000E-04   1.020532054590000E-04
   1.037976625800000E-04   1.055719387600000E-04   1.073765437150000E-04
   1.092119958740000E-04   1.110788225260000E-04   1.129775599740000E-04
   1.149087536880000E-04   1.168729584650000E-04   1.188707385800000E-04
   1.209026679580000E-04   1.229693303340000E-04   1.250713194180000E-04
   1.272092390720000E-04   1.293837034790000E-04   1.315953373210000E-04
   1.338447759560000E-04   1.361326656050000E-04   1.384596635350000E-04
   1.408264382470000E-04   1.432336696700000E-04   1.456820493540000E-04
   1.481722806720000E-04   1.507050790190000E-04   1.532811720180000E-04
   1.559012997330000E-04   1.585662148740000E-04   1.612766830200000E-04
   1.640334828360000E-04   1.668374062980000E-04   1.696892589180000E-04
   1.725898599790000E-04   1.755400427660000E-04   1.785406548110000E-04
   1.815925581310000E-04   1.846966294800000E-04   1.878537605950000E-04
   1.910648584620000E-04   1.943308455640000E-04   1.976526601580000E-04
   2.010312565370000E-04   2.044676053060000E-04   2.079626936610000E-04
   2.115175256730000E-04   2.151331225780000E-04   2.188105230660000E-04
   2.225507835820000E-04   2.263549786330000E-04   2.302242010890000E-04
   2.341595625020000E-04   2.381621934270000E-04   2.422332437410000E-04
   2.463738829790000E-04   2.505853006660000E-04   2.548687066600000E-04
   2.592253315020000E-04   2.636564267660000E-04   2.681632654190000E-04
   2.727471421890000E-04   2.774093739350000E-04   2.821513000260000E-04
   2.869742827260000E-04   2.918797075840000E-04   2.968689838340000E-04
   3.019435447980000E-04   3.071048483000000E-04   3.123543770820000E-04
   3.176936392320000E-04   3.231241686180000E-04   3.286475253240000E-04
   3.342652961040000E-04   3.399790948360000E-04   3.457905629830000E-04
   3.517013700670000E-04   3.577132141490000E-04   3.638278223150000E-04
   3.700469511750000E-04   3.763723873620000E-04   3.828059480540000E-04
   3.893494814870000E-04   3.960048674910000E-04   4.027740180310000E-04
   4.096588777530000E-04   4.166614245430000E-04   4.237836700970000E-04
   4.310276604990000E-04   4.383954768070000E-04   4.458892356520000E-04
   4.535110898470000E-04   4.612632290010000E-04   4.691478801560000E-04
   4.771673084180000E-04   4.853238176140000E-04   4.936197509520000E-04
   5.020574916920000E-04   5.106394638340000E-04   5.193681328130001E-04
   5.282460062060000E-04   5.372756344550000E-04   5.464596115970000E-04
   5.558005760110000E-04   5.653012111750001E-04   5.749642464380000E-04
   5.847924578030000E-04   5.947886687250000E-04   6.049557509220000E-04
   6.152966251990000E-04   6.258142622910000E-04   6.365116837100001E-04
   6.473919626180001E-04   6.584582247100000E-04   6.697136491080000E-04
   6.811614692780000E-04   6.928049739580000E-04   7.046475080990000E-04
   7.166924738350000E-04   7.289433314490000E-04   7.414036003770000E-04
   7.540768602130000E-04   7.669667517380000E-04   7.800769779700000E-04
   7.934113052220000E-04   8.069735641890000E-04   8.207676510460000E-04
   8.347975285660000E-04   8.490672272620000E-04   8.635808465420000E-04
   8.783425558890000E-04   8.933565960550001E-04   9.086272802840000E-04
   9.241589955480000E-04   9.399562038080000E-04   9.560234432970000E-04
   9.723653298200000E-04   9.889865580870001E-04   1.005891903050000E-03
   1.023086221300000E-03   1.040574452420000E-03   1.058361620450000E-03
   1.076452835280000E-03   1.094853294190000E-03   1.113568283260000E-03
   1.132603178950000E-03   1.151963449620000E-03   1.171654657100000E-03
   1.191682458280000E-03   1.212052606780000E-03   1.232770954540000E-03
   1.253843453530000E-03   1.275276157490000E-03   1.297075223610000E-03
   1.319246914340000E-03   1.341797599180000E-03   1.364733756510000E-03
   1.388061975430000E-03   1.411788957710000E-03   1.435921519630000E-03
   1.460466594010000E-03   1.485431232190000E-03   1.510822606020000E-03
   1.536648009940000E-03   1.562914863110000E-03   1.589630711470000E-03
   1.616803229970000E-03   1.644440224750000E-03   1.672549635390000E-03
   1.701139537170000E-03   1.730218143430000E-03   1.759793807880000E-03
   1.789875027030000E-03   1.820470442640000E-03   1.851588844190000E-03
   1.883239171370000E-03   1.915430516740000E-03   1.948172128220000E-03
   1.981473411850000E-03   2.015343934460000E-03   2.049793426380000E-03
   2.084831784280000E-03   2.120469074010000E-03   2.156715533480000E-03
   2.193581575580000E-03   2.231077791230000E-03   2.269214952340000E-03
   2.308004015010000E-03   2.347456122560000E-03   2.387582608840000E-03
   2.428395001390000E-03   2.469905024840000E-03   2.512124604210000E-03
   2.555065868360000E-03   2.598741153490000E-03   2.643163006670000E-03
   2.688344189440000E-03   2.734297681470000E-03   2.781036684310000E-03