<UPF version="2.0.1">
  <PP_INFO>
    Generated by new atomic code, or converted to UPF format
    Author: 
    Generation date: 
    Pseudopotential type: US
    Element: Fe
    Functional:  SLA  PZ   NOGX NOGC
    Suggested minimum cutoff for wavefunctions:   0. Ry
    Suggested minimum cutoff for charge density:   0. Ry
    The Pseudo was generated with a Non-Relativistic Calculation
    L component and cutoff radius for Local Potential:  0   0.0000
    Valence configuration: 
    nl pn  l   occ       Rcut    Rcut US       E pseu
    3S  1  0  2.00      0.000      0.000     0.000000
    3P  2  1  6.00      0.000      0.000     0.000000
    3D  3  2  5.00      0.000      0.000     0.000000
    4S  1  0  2.00      0.000      0.000     0.000000
    4P  2  1  0.00      0.000      0.000     0.000000
    Generation configuration: not available.
  </PP_INFO>
    <!-- END OF HUMAN READABLE SECTION -->
  <PP_HEADER generated="Generated by new atomic code, or converted to UPF format" author="" date="" comment="" element="Fe" pseudo_type="US" relativistic="no" is_ultrasoft="true" is_paw="false" is_coulomb="false" has_so="false" has_wfc="false" has_gipaw="false" paw_as_gipaw="false" core_correction="true" functional=" SLA  PZ   NOGX NOGC" z_valence="16.000000000000000" total_psenergy="-248.49731013499999" wfc_cutoff="0.0000000000000000" rho_cutoff="0.0000000000000000" l_max="2" l_max_rho="0" l_local="0" mesh_size="861" number_of_wfc="5" number_of_proj="6"/>
  <PP_MESH>
    <PP_R>
   0.000000000000000E+00   1.629646503080000E-06   3.287149538760000E-06
   4.972985275610000E-06   6.687638021610000E-06   8.431600363309999E-06
   1.020537330730000E-05   1.200946642430000E-05   1.384439799540000E-05
   1.571069516070000E-05   1.760889407150000E-05   1.953954004350000E-05
   2.150318771400000E-05   2.350040120090000E-05   2.553175426510000E-05
   2.759783047480000E-05   2.969922337400000E-05   3.183653665200000E-05
   3.401038431760000E-05   3.622139087520000E-05   3.847019150430000E-05
   4.075743224160000E-05   4.308377016720000E-05   4.544987359300000E-05
   4.785642225470000E-05   5.030410750710000E-05   5.279363252300000E-05
   5.532571249450000E-05   5.790107483930000E-05   6.052045940930000E-05
   6.318461870279999E-05   6.589431808130000E-05   6.865033598890001E-05
   7.145346417640000E-05   7.430450792820000E-05   7.720428629390001E-05
   8.015363232380000E-05   8.315339330800000E-05   8.620443101960001E-05
   8.930762196290000E-05   9.246385762449999E-05   9.567404472990001E-05
   9.893910550360001E-05   1.022599779350000E-04   1.056376160450000E-04
   1.090729901650000E-04   1.125670872110000E-04   1.161209109700000E-04
   1.197354823860000E-04   1.234118398560000E-04   1.271510395260000E-04
   1.309541555960000E-04   1.348222806280000E-04   1.387565258590000E-04
   1.427580215210000E-04   1.468279171670000E-04   1.509673819990000E-04
   1.551776052050000E-04   1.594597963010000E-04   1.638151854780000E-04
   1.682450239540000E-04   1.727505843360000E-04   1.773331609860000E-04
   1.819940703870000E-04   1.867346515300000E-04   1.915562662920000E-04
   1.964602998280000E-04   2.014481609740000E-04   2.065212826460000E-04
   2.116811222520000E-04   2.169291621140000E-04   2.222669098950000E-04
   2.276958990240000E-04   2.332176891450000E-04   2.388338665620000E-04
   2.445460446940000E-04   2.503558645400000E-04   2.562649951470000E-04
   2.622751340950000E-04   2.683880079810000E-04   2.746053729150000E-04
   2.809290150250000E-04   2.873607509710000E-04   2.939024284680000E-04
   3.005559268110000E-04   3.073231574230000E-04   3.142060643980000E-04
   3.212066250620000E-04   3.283268505400000E-04   3.355687863360000E-04
   3.429345129170000E-04   3.504261463140000E-04   3.580458387290000E-04
   3.657957791510000E-04   3.736781939890000E-04   3.816953477080000E-04
   3.898495434810000E-04   3.981431238510000E-04   4.065784714020000E-04
   4.151580094480000E-04   4.238842027220000E-04   4.327595580920000E-04
   4.417866252760000E-04   4.509679975740000E-04   4.603063126190000E-04
   4.698042531270000E-04   4.794645476720000E-04   4.892899714700000E-04
   4.992833471760000E-04   5.094475456920001E-04   5.197854869969999E-04
   5.303001409800000E-04   5.409945282990000E-04   5.518717212440000E-04
   5.629348446230000E-04   5.741870766550000E-04   5.856316498900000E-04
   5.972718521330000E-04   6.091110273870000E-04   6.211525768200000E-04
   6.333999597350000E-04   6.458566945680000E-04   6.585263598980000E-04
   6.714125954750000E-04   6.845191032660000E-04   6.978496485150000E-04
   7.114080608310000E-04   7.251982352830000E-04   7.392241335220000E-04
   7.534897849160000E-04   7.679992877120000E-04   7.827568102080000E-04
   7.977665919560001E-04   8.130329449750000E-04   8.285602549919999E-04
   8.443529827040000E-04   8.604156650560000E-04   8.767529165460000E-04
   8.933694305490000E-04   9.102699806690000E-04   9.274594221060001E-04
   9.449426930550000E-04   9.627248161210000E-04   9.808108997640000E-04
   9.992061397660001E-04   1.017915820720000E-03   1.036945317560000E-03
   1.056300097100000E-03   1.075985719570000E-03   1.096007840290000E-03
   1.116372211220000E-03   1.137084682650000E-03   1.158151204870000E-03
   1.179577829890000E-03   1.201370713160000E-03   1.223536115360000E-03
   1.246080404170000E-03   1.269010056130000E-03   1.292331658500000E-03
   1.316051911110000E-03   1.340177628330000E-03   1.364715741020000E-03
   1.389673298500000E-03   1.415057470590000E-03   1.440875549680000E-03
   1.467134952800000E-03   1.493843223770000E-03   1.521008035360000E-03
   1.548637191490000E-03   1.576738629480000E-03   1.605320422330000E-03
   1.634390781050000E-03   1.663958056980000E-03   1.694030744220000E-03
   1.724617482080000E-03   1.755727057540000E-03   1.787368407780000E-03
   1.819550622740000E-03   1.852282947750000E-03   1.885574786170000E-03
   1.919435702110000E-03   1.953875423150000E-03   1.988903843160000E-03
   2.024531025120000E-03   2.060767204030000E-03   2.097622789850000E-03
   2.135108370480000E-03   2.173234714790000E-03   2.212012775750000E-03
   2.251453693530000E-03   2.291568798770000E-03   2.332369615740000E-03
   2.373867865740000E-03   2.416075470410000E-03   2.459004555170000E-03
   2.502667452720000E-03   2.547076706570000E-03   2.592245074640000E-03
   2.638185532920000E-03   2.684911279220000E-03   2.732435736940000E-03
   2.780772558950000E-03   2.829935631460000E-03   2.879939078090000E-03
   2.930797263850000E-03   2.982524799320000E-03   3.035136544810000E-03
   3.088647614670000E-03   3.143073381590000E-03   3.198429481030000E-03
   3.254731815740000E-03   3.311996560290000E-03   3.370240165720000E-03
   3.429479364310000E-03   3.489731174310000E-03   3.551012904930000E-03
   3.613342161200000E-03   3.676736849120000E-03   3.741215180750000E-03
   3.806795679480000E-03   3.873497185310000E-03   3.941338860290000E-03
   4.010340194020000E-03   4.080521009260000E-03   4.151901467580000E-03
   4.224502075220000E-03   4.298343688930000E-03   4.373447521970000E-03
   4.449835150220000E-03   4.527528518360000E-03   4.606549946210000E-03
   4.686922135080000E-03   4.768668174350000E-03   4.851811548070000E-03
   4.936376141730000E-03   5.022386249110000E-03   5.109866579230000E-03
   5.198842263500000E-03   5.289338862930000E-03   5.381382375420000E-03
   5.474999243300000E-03   5.570216360880000E-03   5.667061082210000E-03
   5.765561228880000E-03   5.865745098100000E-03   5.967641470740000E-03
   6.071279619660000E-03   6.176689318110000E-03   6.283900848230000E-03
   6.392945009840000E-03   6.503853129200000E-03   6.616657068080000E-03
   6.731389232870000E-03   6.848082583890000E-03   6.966770644890000E-03
   7.087487512640000E-03   7.210267866780000E-03   7.335146979720000E-03
   7.462160726810000E-03   7.591345596650000E-03   7.722738701540000E-03
   7.856377788190001E-03   7.992301248509999E-03   8.130548130690000E-03
   8.271158150390000E-03   8.414171702130000E-03   8.559629870950001E-03
   8.707574444160000E-03   8.858047923380000E-03   9.011093536720000E-03
   9.166755251230001E-03   9.325077785499999E-03   9.486106622550000E-03
   9.649888022820000E-03   9.816469037560000E-03   9.985897522260000E-03
   1.015822215050000E-02   1.033349242770000E-02   1.051175870570000E-02
   1.069307219690000E-02   1.087748498920000E-02   1.106505006080000E-02
   1.125582129560000E-02   1.144985349840000E-02   1.164720241080000E-02
   1.184792472760000E-02   1.205207811220000E-02   1.225972121390000E-02
   1.247091368480000E-02   1.268571619610000E-02   1.290419045670000E-02
   1.312639922980000E-02   1.335240635170000E-02   1.358227675000000E-02
   1.381607646190000E-02   1.405387265360000E-02   1.429573363940000E-02
   1.454172890110000E-02   1.479192910860000E-02   1.504640613940000E-02
   1.530523309990000E-02   1.556848434600000E-02   1.583623550480000E-02
   1.610856349600000E-02   1.638554655410000E-02   1.666726425110000E-02
   1.695379751890000E-02   1.724522867310000E-02   1.754164143610000E-02
   1.784312096160000E-02   1.814975385880000E-02   1.846162821750000E-02
   1.877883363310000E-02   1.910146123250000E-02   1.942960370050000E-02
   1.976335530610000E-02   2.010281192950000E-02   2.044807109020000E-02
   2.079923197440000E-02   2.115639546380000E-02   2.151966416460000E-02
   2.188914243690000E-02   2.226493642460000E-02   2.264715408600000E-02
   2.303590522490000E-02   2.343130152200000E-02   2.383345656700000E-02
   2.424248589120000E-02   2.465850700090000E-02   2.508163941080000E-02
   2.551200467880000E-02   2.594972644040000E-02   2.639493044460000E-02
   2.684774458990000E-02   2.730829896110000E-02   2.777672586650000E-02
   2.825315987610000E-02   2.873773786020000E-02   2.923059902870000E-02
   2.973188497090000E-02   3.024173969680000E-02   3.076030967760000E-02
   3.128774388860000E-02   3.182419385130000E-02   3.236981367740000E-02
   3.292476011290000E-02   3.348919258330000E-02   3.406327323910000E-02
   3.464716700240000E-02   3.524104161480000E-02   3.584506768480000E-02
   3.645941873750000E-02   3.708427126410000E-02   3.771980477250000E-02
   3.836620183940000E-02   3.902364816190000E-02   3.969233261180000E-02
   4.037244728920000E-02   4.106418757770000E-02   4.176775220110000E-02
   4.248334327990000E-02   4.321116638940000E-02   4.395143061930000E-02
   4.470434863300000E-02   4.547013672940000E-02   4.624901490450000E-02
   4.704120691510000E-02   4.784694034240000E-02   4.866644665830000E-02
   4.949996129080000E-02   5.034772369280000E-02   5.120997740990000E-02
   5.208697015080000E-02   5.297895385880000E-02   5.388618478340000E-02
   5.480892355440000E-02   5.574743525700000E-02   5.670198950740000E-02
   5.767286053040000E-02   5.866032723870000E-02   5.966467331220000E-02
   6.068618728010000E-02   6.172516260370000E-02   6.278189776050000E-02
   6.385669632990000E-02   6.494986708090000E-02   6.606172406020000E-02
   6.719258668290000E-02   6.834277982390000E-02   6.951263391140000E-02
   7.070248502180000E-02   7.191267497640000E-02   7.314355143930000E-02
   7.439546801760000E-02   7.566878436250001E-02   7.696386627330000E-02
   7.828108580190000E-02   7.962082136010000E-02   8.098345782780000E-02
   8.236938666430001E-02   8.377900602000000E-02   8.521272085129999E-02
   8.667094303670000E-02   8.815409149530000E-02   8.966259230680000E-02
   9.119687883450001E-02   9.275739184909999E-02   9.434457965580000E-02
   9.595889822290000E-02   9.760081131300000E-02   9.927079061590000E-02
   1.009693158840000E-01   1.026968750720000E-01   1.044539644720000E-01
   1.062410888640000E-01   1.080587616530000E-01   1.099075050220000E-01
   1.117878500780000E-01   1.137003370090000E-01   1.156455152350000E-01
   1.176239435680000E-01   1.196361903730000E-01   1.216828337280000E-01
   1.237644615940000E-01   1.258816719850000E-01   1.280350731320000E-01
   1.302252836660000E-01   1.324529327920000E-01   1.347186604720000E-01
   1.370231176040000E-01   1.393669662140000E-01   1.417508796460000E-01
   1.441755427510000E-01   1.466416520870000E-01   1.491499161210000E-01
   1.517010554280000E-01   1.542958029010000E-01   1.569349039610000E-01
   1.596191167700000E-01   1.623492124510000E-01   1.651259753080000E-01
   1.679502030500000E-01   1.708227070240000E-01   1.737443124450000E-01
   1.767158586320000E-01   1.797381992550000E-01   1.828122025730000E-01
   1.859387516870000E-01   1.891187447950000E-01   1.923530954470000E-01
   1.956427328100000E-01   1.989886019320000E-01   2.023916640170000E-01
   2.058528967000000E-01   2.093732943240000E-01   2.129538682330000E-01
   2.165956470560000E-01   2.202996770050000E-01   2.240670221760000E-01
   2.278987648560000E-01   2.317960058290000E-01   2.357598646980000E-01
   2.397914802010000E-01   2.438920105460000E-01   2.480626337330000E-01
   2.523045479040000E-01   2.566189716770000E-01   2.610071445040000E-01
   2.654703270200000E-01   2.700098014130000E-01   2.746268717860000E-01
   2.793228645320000E-01   2.840991287210000E-01   2.889570364810000E-01
   2.938979833930000E-01   2.989233888980000E-01   3.040346966960000E-01
   3.092333751680000E-01   3.145209177930000E-01   3.198988435790000E-01
   3.253686975010000E-01   3.309320509430000E-01   3.365905021470000E-01
   3.423456766770000E-01   3.481992278840000E-01   3.541528373800000E-01
   3.602082155210000E-01   3.663671019000000E-01   3.726312658470000E-01
   3.790025069340000E-01   3.854826554950000E-01   3.920735731530000E-01
   3.987771533490000E-01   4.055953218930000E-01   4.125300375130000E-01
   4.195832924180000E-01   4.267571128730000E-01   4.340535597760000E-01
   4.414747292560000E-01   4.490227532710000E-01   4.566998002220000E-01
   4.645080755770000E-01   4.724498225020000E-01   4.805273225060000E-01
   4.887428961010000E-01   4.970989034600000E-01   5.055977451030000E-01
   5.142418625830000E-01   5.230337391870000E-01   5.319759006520000E-01
   5.410709158880000E-01   5.503213977150000E-01   5.597300036200000E-01
   5.692994365110000E-01   5.790324455030000E-01   5.889318267000000E-01
   5.990004240030000E-01   6.092411299240000E-01   6.196568864220000E-01
   6.302506857400000E-01   6.410255712730000E-01   6.519846384360000E-01
   6.631310355580000E-01   6.744679647830000E-01   6.859986829910000E-01
   6.977265027340001E-01   7.096547931880000E-01   7.217869811199999E-01
   7.341265518730000E-01   7.466770503670001E-01   7.594420821170000E-01
   7.724253142700001E-01   7.856304766560001E-01   7.990613628650000E-01
   8.127218313290000E-01   8.266158064360000E-01   8.407472796570000E-01
   8.551203106910000E-01   8.697390286320000E-01   8.846076331530000E-01
   8.997303957180000E-01   9.151116608030000E-01   9.307558471489999E-01
   9.466674490270000E-01   9.628510375320000E-01   9.793112618980000E-01
   9.960528508260000E-01   1.013080613850000E+00   1.030399442720000E+00
   1.048014312800000E+00   1.065930284510000E+00   1.084152504740000E+00
   1.102686208400000E+00   1.121536719850000E+00   1.140709454490000E+00
   1.160209920270000E+00   1.180043719300000E+00   1.200216549440000E+00
   1.220734205970000E+00   1.241602583190000E+00   1.262827676200000E+00
   1.284415582550000E+00   1.306372504030000E+00   1.328704748440000E+00
   1.351418731410000E+00   1.374520978210000E+00   1.398018125680000E+00
   1.421916924090000E+00   1.446224239110000E+00   1.470947053750000E+00
   1.496092470410000E+00   1.521667712870000E+00   1.547680128410000E+00
   1.574137189880000E+00   1.601046497900000E+00   1.628415782990000E+00
   1.656252907810000E+00   1.684565869420000E+00   1.713362801610000E+00
   1.742651977150000E+00   1.772441810280000E+00   1.802740859030000E+00
   1.833557827730000E+00   1.864901569510000E+00   1.896781088800000E+00
   1.929205543990000E+00   1.962184249980000E+00   1.995726680930000E+00
   2.029842472930000E+00   2.064541426770000E+00   2.099833510810000E+00
   2.135728863760000E+00   2.172237797680000E+00   2.209370800880000E+00
   2.247138540940000E+00   2.285551867800000E+00   2.324621816880000E+00
   2.364359612220000E+00   2.404776669700000E+00   2.445884600380000E+00
   2.487695213760000E+00   2.530220521220000E+00   2.573472739470000E+00
   2.617464294020000E+00   2.662207822810000E+00   2.707716179770000E+00
   2.754002438590000E+00   2.801079896400000E+00   2.848962077650000E+00
   2.897662737960000E+00   2.947195868090000E+00   2.997575697960000E+00
   3.048816700710000E+00   3.100933596880000E+00   3.153941358660000E+00
   3.207855214150000E+00   3.262690651760000E+00   3.318463424640000E+00
   3.375189555240000E+00   3.432885339870000E+00   3.491567353420000E+00
   3.551252454100000E+00   3.611957788270000E+00   3.673700795410000E+00
   3.736499213090000E+00   3.800371082070000E+00   3.865334751520000E+00
   3.931408884230000E+00   3.998612462020000E+00   4.066964791190000E+00
   4.136485508030000E+00   4.207194584500000E+00   4.279112333950000E+00
   4.352259416960000E+00   4.426656847270000E+00   4.502325997810000E+00
   4.579288606890000E+00   4.657566784350000E+00   4.737183018010000E+00
   4.818160180070000E+00   4.900521533710000E+00   4.984290739740000E+00
   5.069491863440000E+00   5.156149381440000E+00   5.244288188770000E+00
   5.333933606000000E+00   5.425111386530000E+00   5.517847723970000E+00
   5.612169259680000E+00   5.708103090400000E+00   5.805676776070000E+00
   5.904918347720000E+00   6.005856315540000E+00   6.108519677050000E+00
   6.212937925440000E+00   6.319141058060000E+00   6.427159585020000E+00
   6.537024537940000E+00   6.648767478900000E+00   6.762420509490000E+00
   6.878016280020000E+00   6.995587998920000E+00   7.115169442270000E+00
   7.236794963500000E+00   7.360499503280000E+00   7.486318599520000E+00
   7.614288397620000E+00   7.744445660820000E+00   7.876827780790000E+00
   8.011472788340001E+00   8.148419364380000E+00   8.287706851019999E+00
   8.429375262850000E+00   8.573465298460000E+00   8.720018352140000E+00
   8.869076525740001E+00   9.020682640790000E+00   9.174880250790000E+00
   9.331713653740000E+00   9.491227904830000E+00   9.653468829420000E+00
   9.818483036200000E+00   9.986317930540000E+00   1.015702172820000E+01
   1.033064346900000E+01   1.050723303110000E+01   1.068684114540000E+01
   1.086951940970000E+01   1.105532030410000E+01   1.124429720530000E+01
   1.143650440300000E+01   1.163199711450000E+01   1.183083150100000E+01
   1.203306468390000E+01   1.223875476080000E+01   1.244796082260000E+01
   1.266074296990000E+01   1.287716233110000E+01   1.309728107930000E+01
   1.332116245020000E+01   1.354887076080000E+01   1.378047142710000E+01
   1.401603098360000E+01   1.425561710190000E+01   1.449929861060000E+01
   1.474714551460000E+01   1.499922901550000E+01   1.525562153200000E+01
   1.551639672080000E+01   1.578162949750000E+01   1.605139605830000E+01
   1.632577390210000E+01   1.660484185210000E+01   1.688868007920000E+01
   1.717737012480000E+01   1.747099492370000E+01   1.776963882880000E+01
   1.807338763470000E+01   1.838232860250000E+01   1.869655048500000E+01
   1.901614355200000E+01   1.934119961650000E+01   1.967181206080000E+01
   2.000807586330000E+01   2.035008762630000E+01   2.069794560310000E+01
   2.105174972650000E+01   2.141160163760000E+01   2.177760471490000E+01
   2.214986410400000E+01   2.252848674790000E+01   2.291358141740000E+01
   2.330525874290000E+01   2.370363124560000E+01   2.410881337030000E+01
   2.452092151790000E+01   2.494007407920000E+01   2.536639146850000E+01
   2.579999615870000E+01   2.624101271580000E+01   2.668956783550000E+01
   2.714579037900000E+01   2.760981141010000E+01   2.808176423320000E+01
   2.856178443110000E+01   2.905000990440000E+01   2.954658091080000E+01
   3.005164010550000E+01   3.056533258230000E+01   3.108780591500000E+01
   3.161921020020000E+01   3.215969810000000E+01   3.270942488620000E+01
   3.326854848450000E+01   3.383722952050000E+01   3.441563136510000E+01
   3.500392018200000E+01   3.560226497520000E+01   3.621083763760000E+01
   3.682981300030000E+01   3.745936888300000E+01   3.809968614490000E+01
   3.875094873680000E+01   3.941334375380000E+01   4.008706148910000E+01
   4.077229548880000E+01   4.146924260750000E+01   4.217810306450000E+01
   4.289908050170000E+01   4.363238204200000E+01   4.437821834870000E+01
   4.513680368610000E+01   4.590835598130000E+01   4.669309688610000E+01
   4.749125184150000E+01   4.830305014190000E+01   4.912872500140000E+01
   4.996851362020000E+01   5.082265725340000E+01   5.169140128000000E+01
   5.257499527330000E+01   5.347369307280000E+01   5.438775285690000E+01
   5.531743721740000E+01   5.626301323450000E+01   5.722475255400000E+01
   5.820293146490000E+01   5.919783097910000E+01   6.020973691200000E+01
   6.123893996470000E+01   6.228573580710000E+01   6.335042516360000E+01
   6.443331389870001E+01   6.553471310540000E+01   6.665493919450000E+01
   6.779431398510000E+01   6.895316479770000E+01   7.013182454760000E+01
   7.133063184090000E+01   7.254993107190001E+01   7.379007252149999E+01
   7.505141245850000E+01   7.633431324140000E+01   7.763914342270000E+01
   7.896627785490000E+01   8.031609779810000E+01   8.168899102930000E+01
   8.308535195440000E+01   8.450558172060001E+01   8.595008833260000E+01
   8.741928676920000E+01   8.891359910270000E+01   9.043345461990000E+01
   9.197928994620000E+01   9.355154916990000E+01   9.515068397080000E+01
   9.677715374930000E+01   9.843142575880000E+01   1.001139752400000E+02
   1.018252855560000E+02   1.035658483330000E+02   1.053361636020000E+02
   1.071367399400000E+02   1.089680946170000E+02   1.108307537470000E+02
   1.127252524350000E+02   1.146521349340000E+02   1.166119548000000E+02
   1.186052750520000E+02   1.206326683320000E+02   1.226947170700000E+02
   1.247920136530000E+02   1.269251605950000E+02   1.290947707070000E+02
   1.313014672750000E+02   1.335458842420000E+02   1.358286663840000E+02
   1.381504695010000E+02   1.405119606020000E+02   1.429138180980000E+02
   1.453567319960000E+02   1.478414040970000E+02   1.503685482000000E+02
   1.529388903050000E+02   1.555531688210000E+02   1.582121347790000E+02
   1.609165520500000E+02   1.636671975600000E+02   1.664648615150000E+02
   1.693103476320000E+02   1.722044733630000E+02   1.751480701330000E+02
   1.781419835830000E+02   1.811870738050000E+02   1.842842155940000E+02
   1.874342986990000E+02   1.906382280790000E+02   1.938969241610000E+02
   1.972113231040000E+02   2.005823770710000E+02   2.040110545010000E+02
    </PP_R>
    <PP_RAB>
   1.615874952190000E-06   1.643496079370000E-06   1.671589351160000E-06
   1.700162838220000E-06   1.729224749170000E-06   1.758783432930000E-06
   1.788847381130000E-06   1.819425230570000E-06   1.850525765680000E-06
   1.882157921020000E-06   1.914330783920000E-06   1.947053597000000E-06
   1.980335760910000E-06   2.014186836960000E-06   2.048616549910000E-06
   2.083634790750000E-06   2.119251619550000E-06   2.155477268330000E-06
   2.192322144020000E-06   2.229796831440000E-06   2.267912096330000E-06
   2.306678888490000E-06   2.346108344860000E-06   2.386211792750000E-06
   2.427000753120000E-06   2.468486943840000E-06   2.510682283090000E-06
   2.553598892780000E-06   2.597249102010000E-06   2.641645450660000E-06
   2.686800692920000E-06   2.732727801030000E-06   2.779439968960000E-06
   2.826950616200000E-06   2.875273391650000E-06   2.924422177510000E-06
   2.974411093280000E-06   3.025254499790000E-06   3.076967003370000E-06
   3.129563460040000E-06   3.183058979730000E-06   3.237468930670000E-06
   3.292808943780000E-06   3.349094917190000E-06   3.406343020750000E-06
   3.464569700750000E-06   3.523791684590000E-06   3.584025985580000E-06
   3.645289907890000E-06   3.707601051450000E-06   3.770977317050000E-06
   3.835436911460000E-06   3.900998352670000E-06   3.967680475220000E-06
   4.035502435600000E-06   4.104483717730000E-06   4.174644138610000E-06
   4.246003853970000E-06   4.318583364080000E-06   4.392403519610000E-06
   4.467485527680000E-06   4.543850957890000E-06   4.621521748560000E-06
   4.700520212990000E-06   4.780869045920000E-06   4.862591330020000E-06
   4.945710542510000E-06   5.030250561930000E-06   5.116235675000000E-06
   5.203690583580000E-06   5.292640411760000E-06   5.383110713120000E-06
   5.475127478020000E-06   5.568717141090000E-06   5.663906588840000E-06
   5.760723167350000E-06   5.859194690160000E-06   5.959349446210000E-06
   6.061216208050000E-06   6.164824240010000E-06   6.270203306680000E-06
   6.377383681430000E-06   6.486396155100000E-06   6.597272044870000E-06
   6.710043203230000E-06   6.824742027160000E-06   6.941401467410000E-06
   7.060055037990000E-06   7.180736825750000E-06   7.303481500250000E-06
   7.428324323660000E-06   7.555301160910000E-06   7.684448489970000E-06
   7.815803412390000E-06   7.949403663879999E-06   8.085287625220001E-06
   8.223494333230001E-06   8.364063492040000E-06   8.507035484440000E-06
   8.652451383509999E-06   8.800352964429999E-06   8.950782716469999E-06
   9.103783855170001E-06   9.259400334809999E-06   9.417676860989999E-06
   9.578658903489999E-06   9.742392709340000E-06   9.908925316090000E-06
   1.007830456530000E-05   1.025057911650000E-05   1.042579846060000E-05
   1.060401293490000E-05   1.078527373690000E-05   1.096963293940000E-05
   1.115714350510000E-05   1.134785930230000E-05   1.154183511980000E-05
   1.173912668330000E-05   1.193979067060000E-05   1.214388472880000E-05
   1.235146749010000E-05   1.256259858890000E-05   1.277733867930000E-05
   1.299574945180000E-05   1.321789365160000E-05   1.344383509650000E-05
   1.367363869510000E-05   1.390737046550000E-05   1.414509755430000E-05
   1.438688825590000E-05   1.463281203210000E-05   1.488293953200000E-05
   1.513734261250000E-05   1.539609435850000E-05   1.565926910460000E-05
   1.592694245570000E-05   1.619919130910000E-05   1.647609387670000E-05
   1.675772970730000E-05   1.704417970930000E-05   1.733552617430000E-05
   1.763185280060000E-05   1.793324471700000E-05   1.823978850750000E-05
   1.855157223640000E-05   1.886868547290000E-05   1.919121931770000E-05
   1.951926642840000E-05   1.985292104660000E-05   2.019227902490000E-05
   2.053743785420000E-05   2.088849669200000E-05   2.124555639070000E-05
   2.160871952660000E-05   2.197809042950000E-05   2.235377521250000E-05
   2.273588180250000E-05   2.312451997140000E-05   2.351980136740000E-05
   2.392183954720000E-05   2.433075000870000E-05   2.474665022370000E-05
   2.516965967250000E-05   2.559989987750000E-05   2.603749443840000E-05
   2.648256906750000E-05   2.693525162630000E-05   2.739567216160000E-05
   2.786396294350000E-05   2.834025850270000E-05   2.882469566970000E-05
   2.931741361410000E-05   2.981855388400000E-05   3.032826044750000E-05
   3.084667973330000E-05   3.137396067330000E-05   3.191025474510000E-05
   3.245571601560000E-05   3.301050118520000E-05   3.357476963310000E-05
   3.414868346250000E-05   3.473240754800000E-05   3.532610958200000E-05
   3.592996012370000E-05   3.654413264770000E-05   3.716880359380000E-05
   3.780415241790000E-05   3.845036164350000E-05   3.910761691400000E-05
   3.977610704600000E-05   4.045602408390000E-05   4.114756335460000E-05
   4.185092352410000E-05   4.256630665400000E-05   4.329391826010000E-05
   4.403396737120000E-05   4.478666658900000E-05   4.555223214950000E-05
   4.633088398480000E-05   4.712284578650000E-05   4.792834506990000E-05
   4.874761323940000E-05   4.958088565490000E-05   5.042840169940000E-05
   5.129040484790000E-05   5.216714273720000E-05   5.305886723710000E-05
   5.396583452290000E-05   5.488830514860000E-05   5.582654412230000E-05
   5.678082098170000E-05   5.775140987230000E-05   5.873858962550000E-05
   5.974264383870000E-05   6.076386095750000E-05   6.180253435770000E-05
   6.285896243010000E-05   6.393344866600000E-05   6.502630174460001E-05
   6.613783562130000E-05   6.726836961839999E-05   6.841822851640000E-05
   6.958774264750000E-05   7.077724799040000E-05   7.198708626710000E-05
   7.321760504070000E-05   7.446915781540000E-05   7.574210413810001E-05
   7.703680970160000E-05   7.835364644990000E-05   7.969299268450000E-05
   8.105523317380000E-05   8.244075926310000E-05   8.384996898730000E-05
   8.528326718500000E-05   8.674106561499999E-05   8.822378307470000E-05
   8.973184552010001E-05   9.126568618830000E-05   9.282574572200000E-05
   9.441247229630000E-05   9.602632174680000E-05   9.766775770150000E-05
   9.933725171290000E-05   1.010352833950000E-04   1.027623405580000E-04
   1.045189193530000E-04   1.063055244120000E-04   1.081226689900000E-04
   1.099708751190000E-04   1.118506737520000E-04   1.137626049200000E-04
   1.157072178820000E-04   1.176850712890000E-04   1.196967333400000E-04
   1.217427819460000E-04   1.238238048980000E-04   1.259404000320000E-04
   1.280931754070000E-04   1.302827494720000E-04   1.325097512490000E-04
   1.347748205150000E-04   1.370786079780000E-04   1.394217754720000E-04
   1.418049961450000E-04   1.442289546490000E-04   1.466943473410000E-04
   1.492018824800000E-04   1.517522804330000E-04   1.543462738800000E-04
   1.569846080240000E-04   1.596680408080000E-04   1.623973431310000E-04
   1.651732990680000E-04   1.679967060970000E-04   1.708683753300000E-04
   1.737891317400000E-04   1.767598144040000E-04   1.797812767430000E-04
   1.828543867640000E-04   1.859800273110000E-04   1.891590963220000E-04
   1.923925070810000E-04   1.956811884840000E-04   1.990260853050000E-04
   2.024281584700000E-04   2.058883853280000E-04   2.094077599340000E-04
   2.129872933380000E-04   2.166280138700000E-04   2.203309674380000E-04
   2.240972178290000E-04   2.279278470150000E-04   2.318239554610000E-04
   2.357866624430000E-04   2.398171063700000E-04   2.439164451110000E-04
   2.480858563270000E-04   2.523265378090000E-04   2.566397078230000E-04
   2.610266054580000E-04   2.654884909860000E-04   2.700266462200000E-04
   2.746423748850000E-04   2.793370029890000E-04   2.841118792080000E-04
   2.889683752730000E-04   2.939078863600000E-04   2.989318314950000E-04