<UPF version="2.0.1">
  <PP_INFO>
    Generated by new atomic code, or converted to UPF format
    Author: 
    Generation date: 
    Pseudopotential type: US
    Element: Ga
    Functional:  SLA  PZ   NOGX NOGC
    Suggested minimum cutoff for wavefunctions:   0. Ry
    Suggested minimum cutoff for charge density:   0. Ry
    The Pseudo was generated with a Non-Relativistic Calculation
    L component and cutoff radius for Local Potential:  0   0.0000
    Valence configuration: 
    nl pn  l   occ       Rcut    Rcut US       E pseu
    3P  2  1  6.00      0.000      0.000     0.000000
    3D  3  2 10.00      0.000      0.000     0.000000
    4S  1  0  2.00      0.000      0.000     0.000000
    4P  2  1  0.00      0.000      0.000     0.000000
    Generation configuration: not available.
  </PP_INFO>
    <!-- END OF HUMAN READABLE SECTION -->
  <PP_HEADER generated="Generated by new atomic code, or converted to UPF format" author="" date="" comment="" element="Ga" pseudo_type="US" relativistic="no" is_ultrasoft="true" is_paw="false" is_coulomb="false" has_so="false" has_wfc="false" has_gipaw="false" paw_as_gipaw="false" core_correction="true" functional=" SLA  PZ   NOGX NOGC" z_valence="19.000000000000000" total_psenergy="-414.28508080199998" wfc_cutoff="0.0000000000000000" rho_cutoff="0.0000000000000000" l_max="2" l_max_rho="0" l_local="0" mesh_size="871" number_of_wfc="4" number_of_proj="6"/>
  <PP_MESH>
    <PP_R>
   0.000000000000000E+00   1.366800292900000E-06   2.756964129290000E-06
   4.170890876320000E-06   5.608986727800000E-06   7.071664820840000E-06
   8.559345354540000E-06   1.007245571070000E-05   1.161143057680000E-05
   1.317671207030000E-05   1.476874986640000E-05   1.638800132680000E-05
   1.803493163110000E-05   1.971001391050000E-05   2.141372938360000E-05
   2.314656749500000E-05   2.490902605560000E-05   2.670161138550000E-05
   2.852483845990000E-05   3.037923105670000E-05   3.226532190680000E-05
   3.418365284780000E-05   3.613477497900000E-05   3.811924881990000E-05
   4.013764447170000E-05   4.219054178020000E-05   4.427853050310000E-05
   4.640221047930000E-05   4.856219180070000E-05   5.075909498840000E-05
   5.299355117010000E-05   5.526620226170000E-05   5.757770115200000E-05
   5.992871188990000E-05   6.231990987520000E-05   6.475198205290000E-05
   6.722562711030000E-05   6.974155567760000E-05   7.230049053259999E-05
   7.490316680760000E-05   7.755033220119999E-05   8.024274719280000E-05
   8.298118526110000E-05   8.576643310640001E-05   8.859929087640000E-05
   9.148057239650000E-05   9.441110540300000E-05   9.739173178130000E-05
   1.004233078080000E-04   1.035067043960000E-04   1.066428073450000E-04
   1.098325175970000E-04   1.130767514950000E-04   1.163764410430000E-04
   1.197325341790000E-04   1.231459950430000E-04   1.266178042570000E-04
   1.301489592040000E-04   1.337404743170000E-04   1.373933813680000E-04
   1.411087297680000E-04   1.448875868630000E-04   1.487310382460000E-04
   1.526401880670000E-04   1.566161593480000E-04   1.606600943090000E-04
   1.647731546950000E-04   1.689565221080000E-04   1.732113983480000E-04
   1.775390057590000E-04   1.819405875800000E-04   1.864174082990000E-04
   1.909707540200000E-04   1.956019328310000E-04   2.003122751810000E-04
   2.051031342600000E-04   2.099758863880000E-04   2.149319314140000E-04
   2.199726931120000E-04   2.250996195970000E-04   2.303141837350000E-04
   2.356178835690000E-04   2.410122427500000E-04   2.464988109730000E-04
   2.520791644220000E-04   2.577549062260000E-04   2.635276669140000E-04
   2.693991048900000E-04   2.753709069040000E-04   2.814447885390000E-04
   2.876224947040000E-04   2.939058001340000E-04   3.002965099020000E-04
   3.067964599330000E-04   3.134075175400000E-04   3.201315819490000E-04
   3.269705848550000E-04   3.339264909720000E-04   3.410012985950000E-04
   3.481970401820000E-04   3.555157829280000E-04   3.629596293680000E-04
   3.705307179730000E-04   3.782312237720000E-04   3.860633589710000E-04
   3.940293735900000E-04   4.021315561120000E-04   4.103722341360000E-04
   4.187537750500000E-04   4.272785867090000E-04   4.359491181260000E-04
   4.447678601770000E-04   4.537373463160000E-04   4.628601533020000E-04
   4.721389019410000E-04   4.815762578400000E-04   4.911749321660000E-04
   5.009376824340000E-04   5.108673132930000E-04   5.209666773330000E-04
   5.312386759070000E-04   5.416862599600000E-04   5.523124308820000E-04
   5.631202413670000E-04   5.741127962870000E-04   5.852932535930000E-04
   5.966648252130000E-04   6.082307779790000E-04   6.199944345670000E-04
   6.319591744460000E-04   6.441284348550000E-04   6.565057117880000E-04
   6.690945609950000E-04   6.818985990110000E-04   6.949215041870000E-04
   7.081670177520000E-04   7.216389448860000E-04   7.353411558130000E-04
   7.492775869120000E-04   7.634522418510000E-04   7.778691927340000E-04
   7.925325812720000E-04   8.074466199730000E-04   8.226155933510000E-04
   8.380438591580000E-04   8.537358496380000E-04   8.696960727950001E-04
   8.859291136930000E-04   9.024396357700000E-04   9.192323821790000E-04
   9.363121771520000E-04   9.536839273840000E-04   9.713526234410000E-04
   9.893233411989999E-04   1.007601243300000E-03   1.026191580620000E-03
   1.045099693820000E-03   1.064331014820000E-03   1.083891068420000E-03
   1.103785473830000E-03   1.124019946340000E-03   1.144600298920000E-03
   1.165532443900000E-03   1.186822394690000E-03   1.208476267480000E-03
   1.230500283000000E-03   1.252900768320000E-03   1.275684158690000E-03
   1.298856999310000E-03   1.322425947300000E-03   1.346397773570000E-03
   1.370779364750000E-03   1.395577725210000E-03   1.420799979020000E-03
   1.446453372070000E-03   1.472545274070000E-03   1.499083180720000E-03
   1.526074715850000E-03   1.553527633590000E-03   1.581449820660000E-03
   1.609849298540000E-03   1.638734225870000E-03   1.668112900710000E-03
   1.697993763000000E-03   1.728385396930000E-03   1.759296533430000E-03
   1.790736052660000E-03   1.822712986600000E-03   1.855236521590000E-03
   1.888316001030000E-03   1.921960928000000E-03   1.956180968040000E-03
   1.990985951910000E-03   2.026385878410000E-03   2.062390917240000E-03
   2.099011411960000E-03   2.136257882930000E-03   2.174141030340000E-03
   2.212671737290000E-03   2.251861072900000E-03   2.291720295500000E-03
   2.332260855890000E-03   2.373494400580000E-03   2.415432775170000E-03
   2.458088027740000E-03   2.501472412330000E-03   2.545598392420000E-03
   2.590478644560000E-03   2.636126061980000E-03   2.682553758290000E-03
   2.729775071270000E-03   2.777803566690000E-03   2.826653042220000E-03
   2.876337531350000E-03   2.926871307490000E-03   2.978268888000000E-03
   3.030545038420000E-03   3.083714776680000E-03   3.137793377400000E-03
   3.192796376340000E-03   3.248739574770000E-03   3.305639044110000E-03
   3.363511130470000E-03   3.422372459380000E-03   3.482239940550000E-03
   3.543130772770000E-03   3.605062448780000E-03   3.668052760360000E-03
   3.732119803410000E-03   3.797281983140000E-03   3.863558019400000E-03
   3.930966952000000E-03   3.999528146230000E-03   4.069261298380000E-03
   4.140186441460000E-03   4.212323950860000E-03   4.285694550320000E-03
   4.360319317780000E-03   4.436219691490000E-03   4.513417476160000E-03
   4.591934849220000E-03   4.671794367190000E-03   4.753018972170000E-03
   4.835631998420000E-03   4.919657179050000E-03   5.005118652880000E-03
   5.092040971330000E-03   5.180449105510000E-03   5.270368453350000E-03
   5.361824846960000E-03   5.454844559980000E-03   5.549454315170000E-03
   5.645681292080000E-03   5.743553134870000E-03   5.843097960230000E-03
   5.944344365440000E-03   6.047321436660000E-03   6.152058757190000E-03
   6.258586416040000E-03   6.366935016540000E-03   6.477135685160000E-03
   6.589220080410000E-03   6.703220401980000E-03   6.819169399940000E-03
   6.937100384200000E-03   7.057047234050000E-03   7.179044407890000E-03
   7.303126953170000E-03   7.429330516380000E-03   7.557691353380000E-03
   7.688246339740000E-03   7.821032981390001E-03   7.956089425360000E-03
   8.093454470750000E-03   8.233167579890000E-03   8.375268889640001E-03
   8.519799222959999E-03   8.666800100620001E-03   8.816313753130000E-03
   8.968383132870000E-03   9.123051926420000E-03   9.280364567139999E-03
   9.440366247910000E-03   9.603102934099999E-03   9.768621376840000E-03
   9.936969126350000E-03   1.010819454570000E-02   1.028234682460000E-02
   1.045947599370000E-02   1.063963293870000E-02   1.082286941530000E-02
   1.100923806370000E-02   1.119879242400000E-02   1.139158695160000E-02
   1.158767703260000E-02   1.178711899980000E-02   1.198997014920000E-02
   1.219628875580000E-02   1.240613409110000E-02   1.261956643950000E-02
   1.283664711600000E-02   1.305743848370000E-02   1.328200397180000E-02
   1.351040809340000E-02   1.374271646480000E-02   1.397899582350000E-02
   1.421931404810000E-02   1.446374017740000E-02   1.471234443020000E-02
   1.496519822580000E-02   1.522237420410000E-02   1.548394624690000E-02
   1.574998949870000E-02   1.602058038860000E-02   1.629579665210000E-02
   1.657571735350000E-02   1.686042290860000E-02   1.714999510790000E-02
   1.744451713980000E-02   1.774407361480000E-02   1.804875058970000E-02
   1.835863559220000E-02   1.867381764640000E-02   1.899438729790000E-02
   1.932043664030000E-02   1.965205934100000E-02   1.998935066910000E-02
   2.033240752170000E-02   2.068132845240000E-02   2.103621369940000E-02
   2.139716521450000E-02   2.176428669190000E-02   2.213768359870000E-02
   2.251746320440000E-02   2.290373461250000E-02   2.329660879130000E-02
   2.369619860580000E-02   2.410261885050000E-02   2.451598628210000E-02
   2.493641965300000E-02   2.536403974570000E-02   2.579896940710000E-02
   2.624133358400000E-02   2.669125935910000E-02   2.714887598750000E-02
   2.761431493340000E-02   2.808770990860000E-02   2.856919691020000E-02
   2.905891426010000E-02   2.955700264470000E-02   3.006360515500000E-02
   3.057886732820000E-02   3.110293718920000E-02   3.163596529310000E-02
   3.217810476850000E-02   3.272951136160000E-02   3.329034348090000E-02
   3.386076224250000E-02   3.444093151680000E-02   3.503101797520000E-02
   3.563119113800000E-02   3.624162342340000E-02   3.686249019680000E-02
   3.749396982120000E-02   3.813624370850000E-02   3.878949637150000E-02
   3.945391547720000E-02   4.012969190010000E-02   4.081701977790000E-02
   4.151609656650000E-02   4.222712309720000E-02   4.295030363410000E-02
   4.368584593300000E-02   4.443396130090000E-02   4.519486465700000E-02
   4.596877459410000E-02   4.675591344140000E-02   4.755650732880000E-02
   4.837078625130000E-02   4.919898413570000E-02   5.004133890700000E-02
   5.089809255750000E-02   5.176949121600000E-02   5.265578521850000E-02
   5.355722917990000E-02   5.447408206790000E-02   5.540660727630000E-02
   5.635507270180000E-02   5.731975082000000E-02   5.830091876440000E-02
   5.929885840540000E-02   6.031385643180000E-02   6.134620443300000E-02
   6.239619898250000E-02   6.346414172339999E-02   6.455033945499999E-02
   6.565510422100000E-02   6.677875339880000E-02   6.792160979110000E-02
   6.908400171840000E-02   7.026626311350000E-02   7.146873361720001E-02
   7.269175867590000E-02   7.393568964119999E-02   7.520088387029999E-02
   7.648770482889999E-02   7.779652219600000E-02   7.912771196939999E-02
   8.048165657410000E-02   8.185874497220000E-02   8.325937277459999E-02
   8.468394235460000E-02   8.613286296340000E-02   8.760655084780000E-02
   8.910542937000000E-02   9.062992912860000E-02   9.218048808300000E-02
   9.375755167869999E-02   9.536157297560000E-02   9.699301277800000E-02
   9.865233976700000E-02   1.003400306350000E-01   1.020565702230000E-01
   1.038024516600000E-01   1.055781765030000E-01   1.073842548840000E-01
   1.092212056550000E-01   1.110895565350000E-01   1.129898442670000E-01
   1.149226147650000E-01   1.168884232770000E-01   1.188878345420000E-01
   1.209214229520000E-01   1.229897727180000E-01   1.250934780370000E-01
   1.272331432620000E-01   1.294093830780000E-01   1.316228226770000E-01
   1.338740979360000E-01   1.361638556040000E-01   1.384927534840000E-01
   1.408614606220000E-01   1.432706575040000E-01   1.457210362440000E-01
   1.482133007880000E-01   1.507481671170000E-01   1.533263634480000E-01
   1.559486304470000E-01   1.586157214410000E-01   1.613284026330000E-01
   1.640874533240000E-01   1.668936661360000E-01   1.697478472400000E-01
   1.726508165870000E-01   1.756034081430000E-01   1.786064701310000E-01
   1.816608652720000E-01   1.847674710360000E-01   1.879271798900000E-01
   1.911408995570000E-01   1.944095532760000E-01   1.977340800690000E-01
   2.011154350080000E-01   2.045545894900000E-01   2.080525315180000E-01
   2.116102659840000E-01   2.152288149550000E-01   2.189092179710000E-01
   2.226525323400000E-01   2.264598334430000E-01   2.303322150460000E-01
   2.342707896080000E-01   2.382766886050000E-01   2.423510628550000E-01
   2.464950828460000E-01   2.507099390760000E-01   2.549968423900000E-01
   2.593570243340000E-01   2.637917375030000E-01   2.683022559050000E-01
   2.728898753240000E-01   2.775559136940000E-01   2.823017114780000E-01
   2.871286320520000E-01   2.920380620960000E-01   2.970314119960000E-01
   3.021101162430000E-01   3.072756338520000E-01   3.125294487750000E-01
   3.178730703320000E-01   3.233080336410000E-01   3.288359000640000E-01
   3.344582576480000E-01   3.401767215880000E-01   3.459929346880000E-01
   3.519085678350000E-01   3.579253204740000E-01   3.640449211020000E-01
   3.702691277630000E-01   3.765997285490000E-01   3.830385421220000E-01
   3.895874182260000E-01   3.962482382270000E-01   4.030229156500000E-01
   4.099133967300000E-01   4.169216609660000E-01   4.240497216990000E-01
   4.312996266820000E-01   4.386734586730000E-01   4.461733360310000E-01
   4.538014133250000E-01   4.615598819550000E-01   4.694509707780000E-01
   4.774769467510000E-01   4.856401155830000E-01   4.939428223930000E-01
   5.023874523890000E-01   5.109764315490000E-01   5.197122273210000E-01
   5.285973493300000E-01   5.376343501000000E-01   5.468258257850001E-01
   5.561744169200000E-01   5.656828091730000E-01   5.753537341210000E-01
   5.851899700350000E-01   5.951943426740000E-01   6.053697261010000E-01
   6.157190435070000E-01   6.262452680500000E-01   6.369514237110000E-01
   6.478405861620000E-01   6.589158836470000E-01   6.701804978870000E-01
   6.816376649850000E-01   6.932906763659999E-01   7.051428797130000E-01
   7.171976799350001E-01   7.294585401430000E-01   7.419289826440000E-01
   7.546125899570000E-01   7.675130058350000E-01   7.806339363180000E-01
   7.939791507970000E-01   8.075524830920000E-01   8.213578325590000E-01
   8.353991652090000E-01   8.496805148440000E-01   8.642059842199999E-01
   8.789797462230000E-01   8.940060450690001E-01   9.092891975230000E-01
   9.248335941380000E-01   9.406437005200000E-01   9.567240586060000E-01
   9.730792879710000E-01   9.897140871560000E-01   1.006633235020000E+00
   1.023841592100000E+00   1.041344102030000E+00   1.059145792940000E+00
   1.077251778910000E+00   1.095667261450000E+00   1.114397530950000E+00
   1.133447968280000E+00   1.152824046240000E+00   1.172531331210000E+00
   1.192575484720000E+00   1.212962265060000E+00   1.233697528950000E+00
   1.254787233240000E+00   1.276237436600000E+00   1.298054301240000E+00
   1.320244094740000E+00   1.342813191790000E+00   1.365768076060000E+00
   1.389115342030000E+00   1.412861696940000E+00   1.437013962640000E+00
   1.461579077610000E+00   1.486564098950000E+00   1.511976204350000E+00
   1.537822694230000E+00   1.564110993780000E+00   1.590848655120000E+00
   1.618043359470000E+00   1.645702919340000E+00   1.673835280780000E+00
   1.702448525680000E+00   1.731550874070000E+00   1.761150686480000E+00
   1.791256466380000E+00   1.821876862570000E+00   1.853020671700000E+00
   1.884696840790000E+00   1.916914469770000E+00   1.949682814160000E+00
   1.983011287670000E+00   2.016909464910000E+00   2.051387084190000E+00
   2.086454050250000E+00   2.122120437150000E+00   2.158396491170000E+00
   2.195292633700000E+00   2.232819464290000E+00   2.270987763680000E+00
   2.309808496880000E+00   2.349292816330000E+00   2.389452065120000E+00
   2.430297780220000E+00   2.471841695820000E+00   2.514095746680000E+00
   2.557072071560000E+00   2.600783016740000E+00   2.645241139520000E+00
   2.690459211870000E+00   2.736450224050000E+00   2.783227388410000E+00
   2.830804143100000E+00   2.879194156020000E+00   2.928411328680000E+00
   2.978469800210000E+00   3.029383951450000E+00   3.081168409050000E+00
   3.133838049680000E+00   3.187408004320000E+00   3.241893662560000E+00
   3.297310677090000E+00   3.353674968150000E+00   3.411002728090000E+00
   3.469310426090000E+00   3.528614812810000E+00   3.588932925250000E+00
   3.650282091640000E+00   3.712679936420000E+00   3.776144385260000E+00
   3.840693670290000E+00   3.906346335260000E+00   3.973121240910000E+00
   4.041037570380000E+00   4.110114834720000E+00   4.180372878490000E+00
   4.251831885460000E+00   4.324512384430000E+00   4.398435255100000E+00
   4.473621734070000E+00   4.550093420960000E+00   4.627872284620000E+00
   4.706980669410000E+00   4.787441301630000E+00   4.869277296060000E+00
   4.952512162610000E+00   5.037169813030000E+00   5.123274567840000E+00
   5.210851163270000E+00   5.299924758370000E+00   5.390520942270000E+00
   5.482665741490000E+00   5.576385627460000E+00   5.671707524090000E+00
   5.768658815500000E+00   5.867267353930000E+00   5.967561467710000E+00
   6.069569969390000E+00   6.173322164040000E+00   6.278847857670000E+00
   6.386177365750000E+00   6.495341521980000E+00   6.606371687110000E+00
   6.719299757960000E+00   6.834158176580000E+00   6.950979939560000E+00
   7.069798607550000E+00   7.190648314840000E+00   7.313563779210000E+00
   7.438580311910000E+00   7.565733827760000E+00   7.695060855500000E+00
   7.826598548300000E+00   7.960384694370000E+00   8.096457727900001E+00
   8.234856740040000E+00   8.375621490129999E+00   8.518792417169999E+00
   8.664410651400001E+00   8.812518026119999E+00   8.963157089710000E+00
   9.116371117850001E+00   9.272204125980000E+00   9.430700881900000E+00
   9.591906918659999E+00   9.755868547640000E+00   9.922632871839999E+00
   1.009224779940000E+01   1.026476205750000E+01   1.044022520600000E+01
   1.061868765220000E+01   1.080020066480000E+01   1.098481638910000E+01
   1.117258786150000E+01   1.136356902520000E+01   1.155781474530000E+01
   1.175538082490000E+01   1.195632402100000E+01   1.216070206050000E+01
   1.236857365740000E+01   1.257999852910000E+01   1.279503741390000E+01
   1.301375208840000E+01   1.323620538500000E+01   1.346246121020000E+01
   1.369258456300000E+01   1.392664155340000E+01   1.416469942130000E+01
   1.440682655630000E+01   1.465309251670000E+01   1.490356805000000E+01
   1.515832511300000E+01   1.541743689240000E+01   1.568097782610000E+01
   1.594902362430000E+01   1.622165129130000E+01   1.649893914770000E+01
   1.678096685310000E+01   1.706781542850000E+01   1.735956728000000E+01
   1.765630622220000E+01   1.795811750250000E+01   1.826508782540000E+01
   1.857730537760000E+01   1.889485985310000E+01   1.921784247910000E+01
   1.954634604240000E+01   1.988046491570000E+01   2.022029508480000E+01
   2.056593417630000E+01   2.091748148580000E+01   2.127503800590000E+01
   2.163870645560000E+01   2.200859131000000E+01   2.238479882980000E+01
   2.276743709210000E+01   2.315661602140000E+01   2.355244742140000E+01
   2.395504500680000E+01   2.436452443600000E+01   2.478100334450000E+01
   2.520460137880000E+01   2.563544023030000E+01   2.607364367070000E+01
   2.651933758730000E+01   2.697265001940000E+01   2.743371119490000E+01
   2.790265356770000E+01   2.837961185590000E+01   2.886472308040000E+01
   2.935812660430000E+01   2.985996417280000E+01   3.037037995410000E+01
   3.088952058090000E+01   3.141753519220000E+01   3.195457547640000E+01
   3.250079571470000E+01   3.305635282570000E+01   3.362140641020000E+01
   3.419611879710000E+01   3.478065509020000E+01   3.537518321540000E+01
   3.597987396910000E+01   3.659490106740000E+01   3.722044119570000E+01
   3.785667405930000E+01   3.850378243590000E+01   3.916195222700000E+01
   3.983137251220000E+01   4.051223560290000E+01   4.120473709790000E+01
   4.190907593950000E+01   4.262545447060000E+01   4.335407849290000E+01
   4.409515732600000E+01   4.484890386750000E+01   4.561553465420000E+01
   4.639526992430000E+01   4.718833368050000E+01   4.799495375490000E+01
   4.881536187380000E+01   4.964979372440000E+01   5.049848902300000E+01
   5.136169158330000E+01   5.223964938660000E+01   5.313261465330000E+01
   5.404084391500000E+01   5.496459808840000E+01   5.590414255020000E+01
   5.685974721330000E+01   5.783168660450000E+01   5.882023994310000E+01
   5.982569122140000E+01   6.084832928610000E+01   6.188844792130000E+01
   6.294634593300000E+01   6.402232723470000E+01   6.511670093520000E+01
   6.622978142670000E+01   6.736188847580000E+01   6.851334731490000E+01
   6.968448873590000E+01   7.087564918500000E+01   7.208717085959999E+01
   7.331940180650000E+01   7.457269602160000E+01   7.584741355220000E+01
   7.714392060000000E+01   7.846258962640000E+01   7.980379945940000E+01
   8.116793540270000E+01   8.255538934610000E+01   8.396655987830000E+01
   8.540185240140001E+01   8.686167924700000E+01   8.834645979520000E+01
   8.985662059470000E+01   9.139259548539999E+01   9.295482572330000E+01
   9.454376010679999E+01   9.615985510610000E+01   9.780357499400000E+01
   9.947539197930000E+01   1.011757863430000E+02   1.029052465750000E+02
   1.046642695160000E+02   1.064533604990000E+02   1.082730334960000E+02
   1.101238112630000E+02   1.120062254930000E+02   1.139208169670000E+02
   1.158681357110000E+02   1.178487411500000E+02   1.198632022760000E+02
   1.219120978030000E+02   1.239960163390000E+02   1.261155565550000E+02
   1.282713273520000E+02   1.304639480430000E+02   1.326940485240000E+02
   1.349622694610000E+02   1.372692624690000E+02   1.396156903030000E+02
   1.420022270460000E+02   1.444295583040000E+02   1.468983814020000E+02
   1.494094055860000E+02   1.519633522230000E+02   1.545609550140000E+02
   1.572029602000000E+02   1.598901267760000E+02   1.626232267160000E+02
   1.654030451840000E+02   1.682303807690000E+02   1.711060457110000E+02
   1.740308661310000E+02   1.770056822750000E+02   1.800313487480000E+02
   1.831087347680000E+02   1.862387244060000E+02   1.894222168500000E+02
   1.926601266530000E+02   1.959533840060000E+02   1.993029349970000E+02
   2.027097418880000E+02
    </PP_R>
    <PP_RAB>
   1.355249959910000E-06   1.378416066560000E-06   1.401978165490000E-06
   1.425943025610000E-06   1.450317531560000E-06   1.475108685680000E-06
   1.500323609980000E-06   1.525969548220000E-06   1.552053867990000E-06
   1.578584062790000E-06   1.605567754250000E-06   1.633012694260000E-06
   1.660926767210000E-06   1.689317992290000E-06   1.718194525730000E-06
   1.747564663210000E-06   1.777436842200000E-06   1.807819644410000E-06
   1.838721798210000E-06   1.870152181200000E-06   1.902119822730000E-06
   1.934633906480000E-06   1.967703773110000E-06   2.001338922950000E-06
   2.035549018750000E-06   2.070343888380000E-06   2.105733527750000E-06
   2.141728103620000E-06   2.178337956530000E-06   2.215573603780000E-06
   2.253445742450000E-06   2.291965252480000E-06   2.331143199770000E-06
   2.370990839390000E-06   2.411519618810000E-06   2.452741181140000E-06
   2.494667368550000E-06   2.537310225630000E-06   2.580682002830000E-06
   2.624795160030000E-06   2.669662370090000E-06   2.715296522490000E-06
   2.761710727040000E-06   2.808918317640000E-06   2.856932856120000E-06
   2.905768136120000E-06   2.955438187070000E-06   3.005957278230000E-06
   3.057339922750000E-06   3.109600881860000E-06   3.162755169140000E-06
   3.216818054770000E-06   3.271805069980000E-06   3.327732011480000E-06
   3.384614945990000E-06   3.442470214870000E-06   3.501314438840000E-06
   3.561164522690000E-06   3.622037660190000E-06   3.683951339030000E-06
   3.746923345800000E-06   3.810971771140000E-06   3.876115014920000E-06
   3.942371791540000E-06   4.009761135290000E-06   4.078302405820000E-06
   4.148015293720000E-06   4.218919826140000E-06   4.291036372580000E-06
   4.364385650740000E-06   4.438988732450000E-06   4.514867049710000E-06
   4.592042400920000E-06   4.670536957050000E-06   4.750373268060000E-06
   4.831574269390000E-06   4.914163288520000E-06   4.998164051660000E-06
   5.083600690620000E-06   5.170497749690000E-06   5.258880192700000E-06
   5.348773410230000E-06   5.440203226860000E-06   5.533195908600000E-06
   5.627778170450000E-06   5.723977184070000E-06   5.821820585570000E-06
   5.921336483470000E-06   6.022553466760000E-06   6.125500613120000E-06
   6.230207497270000E-06   6.336704199470000E-06   6.445021314170000E-06
   6.555189958780000E-06   6.667241782610000E-06   6.781208975990000E-06
   6.897124279490000E-06   7.015020993320000E-06   7.134932986950000E-06
   7.256894708750000E-06   7.380941195980000E-06   7.507108084780000E-06
   7.635431620470000E-06   7.765948667910000E-06   7.898696722119999E-06
   8.033713919060000E-06   8.171039046540000E-06   8.310711555430000E-06
   8.452771570930000E-06   8.597259904129999E-06   8.744218063739999E-06
   8.893688267989999E-06   9.045713456780001E-06   9.200337304000000E-06
   9.357604230099999E-06   9.517559414809999E-06   9.680248810179999E-06
   9.845719153700000E-06   1.001401798180000E-05   1.018519364350000E-05
   1.035929531430000E-05   1.053637301010000E-05   1.071647760200000E-05
   1.089966083050000E-05   1.108597532070000E-05   1.127547459710000E-05
   1.146821309910000E-05   1.166424619680000E-05   1.186363020680000E-05
   1.206642240810000E-05   1.227268105910000E-05   1.248246541390000E-05
   1.269583573950000E-05   1.291285333300000E-05   1.313358053930000E-05
   1.335808076930000E-05   1.358641851730000E-05   1.381865938050000E-05
   1.405487007710000E-05   1.429511846590000E-05   1.453947356560000E-05
   1.478800557470000E-05   1.504078589160000E-05   1.529788713530000E-05
   1.555938316600000E-05   1.582534910630000E-05   1.609586136320000E-05
   1.637099764960000E-05   1.665083700680000E-05   1.693545982730000E-05
   1.722494787770000E-05   1.751938432230000E-05   1.781885374700000E-05
   1.812344218360000E-05   1.843323713440000E-05   1.874832759760000E-05
   1.906880409240000E-05   1.939475868570000E-05   1.972628501780000E-05
   2.006347832990000E-05   2.040643549110000E-05   2.075525502640000E-05
   2.111003714470000E-05   2.147088376830000E-05   2.183789856120000E-05
   2.221118695980000E-05   2.259085620270000E-05   2.297701536140000E-05
   2.336977537190000E-05   2.376924906670000E-05   2.417555120690000E-05
   2.458879851500000E-05   2.500910970920000E-05   2.543660553660000E-05
   2.587140880860000E-05   2.631364443570000E-05   2.676343946360000E-05
   2.722092310980000E-05   2.768622680050000E-05   2.815948420840000E-05
   2.864083129120000E-05   2.913040633050000E-05   2.962834997200000E-05
   3.013480526500000E-05   3.064991770450000E-05   3.117383527220000E-05
   3.170670847960000E-05   3.224869041070000E-05   3.279993676660000E-05
   3.336060590950000E-05   3.393085890910000E-05   3.451085958770000E-05
   3.510077456860000E-05   3.570077332270000E-05   3.631102821820000E-05
   3.693171456940000E-05   3.756301068760000E-05   3.820509793180000E-05
   3.885816076140000E-05   3.952238678860000E-05   4.019796683280000E-05
   4.088509497500000E-05   4.158396861380000E-05   4.229478852210000E-05
   4.301775890470000E-05   4.375308745700000E-05   4.450098542470000E-05
   4.526166766440000E-05   4.603535270530000E-05   4.682226281220000E-05
   4.762262404920000E-05   4.843666634450000E-05   4.926462355680000E-05
   5.010673354220000E-05   5.096323822240000E-05   5.183438365490000E-05
   5.272042010270000E-05   5.362160210700000E-05   5.453818856000000E-05
   5.547044277920000E-05   5.641863258320000E-05   5.738303036860000E-05
   5.836391318820000E-05   5.936156283070000E-05   6.037626590150000E-05
   6.140831390510000E-05   6.245800332900000E-05   6.352563572870000E-05
   6.461151781430001E-05   6.571596153860001E-05   6.683928418700000E-05
   6.798180846840000E-05   6.914386260779999E-05   7.032578044099999E-05
   7.152790151000000E-05   7.275057116100000E-05   7.399414064329999E-05
   7.525896721040000E-05   7.654541422240000E-05   7.785385125070000E-05
   7.918465418400000E-05   8.053820533610000E-05   8.191489355610000E-05
   8.331511433990000E-05   8.473926994380000E-05   8.618776950020000E-05
   8.766102913500000E-05   8.915947208720000E-05   9.068352883030000E-05
   9.223363719650000E-05   9.381024250190000E-05   9.541379767460000E-05
   9.704476338500000E-05   9.870360817810000E-05   1.003908086080000E-04
   1.021068493740000E-04   1.038522234630000E-04   1.056274322850000E-04
   1.074329858250000E-04   1.092694027830000E-04   1.111372107250000E-04
   1.130369462380000E-04   1.149691550780000E-04   1.169343923320000E-04
   1.189332225730000E-04   1.209662200280000E-04   1.230339687380000E-04
   1.251370627250000E-04   1.272761061700000E-04   1.294517135760000E-04
   1.316645099560000E-04   1.339151310000000E-04   1.362042232710000E-04
   1.385324443790000E-04   1.409004631780000E-04   1.433089599540000E-04
   1.457586266200000E-04   1.482501669200000E-04   1.507842966230000E-04
   1.533617437370000E-04   1.559832487130000E-04   1.586495646570000E-04
   1.613614575520000E-04   1.641197064700000E-04   1.669251038050000E-04
   1.697784554910000E-04   1.726805812430000E-04   1.756323147840000E-04
   1.786345040900000E-04   1.816880116330000E-04   1.847937146250000E-04
   1.879525052760000E-04   1.911652910450000E-04   1.944329949020000E-04
   1.977565555970000E-04   2.011369279230000E-04   2.045750829970000E-04
   2.080720085330000E-04   2.116287091300000E-04   2.152462065610000E-04