<UPF version="2.0.1">
  <PP_INFO>
    Generated by new atomic code, or converted to UPF format
    Author: 
    Generation date: 
    Pseudopotential type: US
    Element: Ge
    Functional:  SLA  PZ   NOGX NOGC
    Suggested minimum cutoff for wavefunctions:   0. Ry
    Suggested minimum cutoff for charge density:   0. Ry
    The Pseudo was generated with a Non-Relativistic Calculation
    L component and cutoff radius for Local Potential:  0   0.0000
    Valence configuration: 
    nl pn  l   occ       Rcut    Rcut US       E pseu
    3D  3  2 10.00      0.000      0.000     0.000000
    4S  1  0  2.00      0.000      0.000     0.000000
    4P  2  1  2.00      0.000      0.000     0.000000
    Generation configuration: not available.
  </PP_INFO>
    <!-- END OF HUMAN READABLE SECTION -->
  <PP_HEADER generated="Generated by new atomic code, or converted to UPF format" author="" date="" comment="" element="Ge" pseudo_type="US" relativistic="no" is_ultrasoft="true" is_paw="false" is_coulomb="false" has_so="false" has_wfc="false" has_gipaw="false" paw_as_gipaw="false" core_correction="true" functional=" SLA  PZ   NOGX NOGC" z_valence="14.000000000000000" total_psenergy="-212.70514054200001" wfc_cutoff="0.0000000000000000" rho_cutoff="0.0000000000000000" l_max="2" l_max_rho="0" l_local="0" mesh_size="873" number_of_wfc="3" number_of_proj="6"/>
  <PP_MESH>
    <PP_R>
   0.000000000000000E+00   1.324087783750000E-06   2.670809000250000E-06
   4.040550536440000E-06   5.433705892560000E-06   6.850675295190000E-06
   8.291865812210000E-06   9.757691469780001E-06   1.124857337120000E-05
   1.276493981810000E-05   1.430722643310000E-05   1.587587628540000E-05
   1.747134001760000E-05   1.909407597580000E-05   2.074455034040000E-05
   2.242323726080000E-05   2.413061899130000E-05   2.586718602970000E-05
   2.763343725810000E-05   2.942988008610000E-05   3.125703059720000E-05
   3.311541369630000E-05   3.500556326090000E-05   3.692802229430000E-05
   3.888334308190000E-05   4.087208734950000E-05   4.289482642490000E-05
   4.495214140180000E-05   4.704462330700000E-05   4.917287327000000E-05
   5.133750269600000E-05   5.353913344100000E-05   5.577839799100000E-05
   5.805593964330000E-05   6.037241269160000E-05   6.272848261380000E-05
   6.512482626310000E-05   6.756213206270000E-05   7.004110020340000E-05
   7.256244284490001E-05   7.512688431989999E-05   7.773516134300000E-05
   8.038802322170000E-05   8.308623207180001E-05   8.583056303650000E-05
   8.862180450909999E-05   9.146075835910000E-05   9.434824016310000E-05
   9.728507943879999E-05   1.002721198830000E-04   1.033102196150000E-04
   1.064002514220000E-04   1.095431030100000E-04   1.127396772600000E-04
   1.159908924860000E-04   1.192976826980000E-04   1.226609978740000E-04
   1.260818042290000E-04   1.295610844950000E-04   1.330998382010000E-04
   1.366990819620000E-04   1.403598497730000E-04   1.440831933010000E-04
   1.478701821900000E-04   1.517219043680000E-04   1.556394663620000E-04
   1.596239936110000E-04   1.636766307920000E-04   1.677985421500000E-04
   1.719909118290000E-04   1.762549442180000E-04   1.805918642890000E-04
   1.850029179570000E-04   1.894893724300000E-04   1.940525165820000E-04
   1.986936613140000E-04   2.034141399390000E-04   2.082153085570000E-04
   2.130985464520000E-04   2.180652564850000E-04   2.231168654930000E-04
   2.282548247080000E-04   2.334806101640000E-04   2.387957231300000E-04
   2.442016905340000E-04   2.497000654060000E-04   2.552924273230000E-04
   2.609803828630000E-04   2.667655660640000E-04   2.726496388980000E-04
   2.786342917450000E-04   2.847212438800000E-04   2.909122439670000E-04
   2.972090705600000E-04   3.036135326160000E-04   3.101274700130000E-04
   3.167527540790000E-04   3.234912881290000E-04   3.303450080140000E-04
   3.373158826760000E-04   3.444059147120000E-04   3.516171409500000E-04
   3.589516330360000E-04   3.664114980290000E-04   3.739988790030000E-04
   3.817159556650000E-04   3.895649449830000E-04   3.975481018190000E-04
   4.056677195800000E-04   4.139261308750000E-04   4.223257081850000E-04
   4.308688645470000E-04   4.395580542430000E-04   4.483957735110000E-04
   4.573845612560000E-04   4.665269997820000E-04   4.758257155360000E-04
   4.852833798580000E-04   4.949027097520000E-04   5.046864686660000E-04
   5.146374672840000E-04   5.247585643360000E-04   5.350526674170000E-04
   5.455227338240000E-04   5.561717714030000E-04   5.670028394180000E-04
   5.780190494250000E-04   5.892235661680000E-04   6.006196084870000E-04
   6.122104502450000E-04   6.239994212660000E-04   6.359899082940000E-04
   6.481853559640000E-04   6.605892677920000E-04   6.732052071810000E-04
   6.860367984470000E-04   6.990877278580000E-04   7.123617446930000E-04
   7.258626623210000E-04   7.395943592930000E-04   7.535607804610000E-04
   7.677659381070000E-04   7.822139130980000E-04   7.969088560580000E-04
   8.118549885600000E-04   8.270566043370000E-04   8.425180705200000E-04
   8.582438288900000E-04   8.742383971520000E-04   8.905063702360000E-04
   9.070524216160000E-04   9.238813046530000E-04   9.409978539580000E-04
   9.584069867860000E-04   9.761137044430001E-04   9.941230937270001E-04
   1.012440328390000E-03   1.031070670610000E-03   1.050019472530000E-03
   1.069292177780000E-03   1.088894323020000E-03   1.108831539580000E-03
   1.129109555030000E-03   1.149734194860000E-03   1.170711384120000E-03
   1.192047149150000E-03   1.213747619310000E-03   1.235819028730000E-03
   1.258267718080000E-03   1.281100136450000E-03   1.304322843150000E-03
   1.327942509600000E-03   1.351965921290000E-03   1.376399979680000E-03
   1.401251704190000E-03   1.426528234250000E-03   1.452236831320000E-03
   1.478384880970000E-03   1.504979895040000E-03   1.532029513760000E-03
   1.559541507960000E-03   1.587523781310000E-03   1.615984372570000E-03
   1.644931457910000E-03   1.674373353280000E-03   1.704318516760000E-03
   1.734775551010000E-03   1.765753205770000E-03   1.797260380290000E-03
   1.829306126000000E-03   1.861899649000000E-03   1.895050312790000E-03
   1.928767640910000E-03   1.963061319700000E-03   1.997941201070000E-03
   2.033417305340000E-03   2.069499824090000E-03   2.106199123140000E-03
   2.143525745500000E-03   2.181490414370000E-03   2.220104036270000E-03
   2.259377704140000E-03   2.299322700560000E-03   2.339950500950000E-03
   2.381272776880000E-03   2.423301399440000E-03   2.466048442660000E-03
   2.509526186920000E-03   2.553747122540000E-03   2.598723953340000E-03
   2.644469600290000E-03   2.690997205230000E-03   2.738320134650000E-03
   2.786451983500000E-03   2.835406579130000E-03   2.885197985250000E-03
   2.935840505970000E-03   2.987348689910000E-03   3.039737334360000E-03
   3.093021489580000E-03   3.147216463060000E-03   3.202337823980000E-03
   3.258401407640000E-03   3.315423320020000E-03   3.373419942410000E-03
   3.432407936120000E-03   3.492404247250000E-03   3.553426111600000E-03
   3.615491059550000E-03   3.678616921170000E-03   3.742821831290000E-03
   3.808124234750000E-03   3.874542891660000E-03   3.942096882810000E-03
   4.010805615160000E-03   4.080688827400000E-03   4.151766595620000E-03
   4.224059339100000E-03   4.297587826130000E-03   4.372373180030000E-03
   4.448436885180000E-03   4.525800793220000E-03   4.604487129290000E-03
   4.684518498470000E-03   4.765917892200000E-03   4.848708694980000E-03
   4.932914690980000E-03   5.018560070960000E-03   5.105669439190000E-03
   5.194267820490000E-03   5.284380667480000E-03   5.376033867820000E-03
   5.469253751710000E-03   5.564067099410000E-03   5.660501148970000E-03
   5.758583604020000E-03   5.858342641760000E-03   5.959806921020000E-03
   6.063005590530000E-03   6.167968297280000E-03   6.274725195000000E-03
   6.383306952900000E-03   6.493744764420000E-03   6.606070356190000E-03
   6.720315997190000E-03   6.836514507980000E-03   6.954699270150000E-03
   7.074904235880000E-03   7.197163937750000E-03   7.321513498590000E-03
   7.447988641620000E-03   7.576625700720000E-03   7.707461630820000E-03
   7.840534018540001E-03   7.975881093020000E-03   8.113541736840001E-03
   8.253555497240000E-03   8.395962597479999E-03   8.540803948350001E-03
   8.688121159970001E-03   8.837956553720000E-03   8.990353174420001E-03
   9.145354802660001E-03   9.303005967410001E-03   9.463351958810000E-03
   9.626438841150000E-03   9.792313466130000E-03   9.961023486330000E-03
   1.013261736890000E-02   1.030714440940000E-02   1.048465474600000E-02
   1.066519937420000E-02   1.084883016080000E-02   1.103559985940000E-02
   1.122556212530000E-02   1.141877153110000E-02   1.161528358200000E-02
   1.181515473220000E-02   1.201844240070000E-02   1.222520498820000E-02
   1.243550189360000E-02   1.264939353110000E-02   1.286694134770000E-02
   1.308820784050000E-02   1.331325657520000E-02   1.354215220400000E-02
   1.377496048410000E-02   1.401174829690000E-02   1.425258366680000E-02
   1.449753578130000E-02   1.474667501030000E-02   1.500007292670000E-02
   1.525780232690000E-02   1.551993725140000E-02   1.578655300670000E-02
   1.605772618620000E-02   1.633353469270000E-02   1.661405776080000E-02
   1.689937597920000E-02   1.718957131430000E-02   1.748472713370000E-02
   1.778492823000000E-02   1.809026084500000E-02   1.840081269490000E-02
   1.871667299520000E-02   1.903793248660000E-02   1.936468346070000E-02
   1.969701978660000E-02   2.003503693820000E-02   2.037883202130000E-02
   2.072850380150000E-02   2.108415273280000E-02   2.144588098620000E-02
   2.181379247930000E-02   2.218799290590000E-02   2.256858976650000E-02
   2.295569239940000E-02   2.334941201140000E-02   2.374986171080000E-02
   2.415715653890000E-02   2.457141350370000E-02   2.499275161310000E-02
   2.542129190950000E-02   2.585715750410000E-02   2.630047361290000E-02
   2.675136759180000E-02   2.720996897400000E-02   2.767640950670000E-02
   2.815082318950000E-02   2.863334631200000E-02   2.912411749390000E-02
   2.962327772420000E-02   3.013097040210000E-02   3.064734137770000E-02
   3.117253899450000E-02   3.170671413160000E-02   3.225002024710000E-02
   3.280261342240000E-02   3.336465240690000E-02   3.393629866340000E-02
   3.451771641490000E-02   3.510907269140000E-02   3.571053737820000E-02
   3.632228326430000E-02   3.694448609260000E-02   3.757732460990000E-02
   3.822098061850000E-02   3.887563902820000E-02   3.954148790980000E-02
   4.021871854880000E-02   4.090752550040000E-02   4.160810664550000E-02
   4.232066324760000E-02   4.304540001030000E-02   4.378252513650000E-02
   4.453225038800000E-02   4.529479114630000E-02   4.607036647470000E-02
   4.685919918100000E-02   4.766151588140000E-02   4.847754706620000E-02
   4.930752716510000E-02   5.015169461550000E-02   5.101029193040000E-02
   5.188356576810000E-02   5.277176700320000E-02   5.367515079900000E-02
   5.459397667990000E-02   5.552850860690000E-02   5.647901505300000E-02
   5.744576908020000E-02   5.842904841830000E-02   5.942913554450000E-02
   6.044631776430000E-02   6.148088729450000E-02   6.253314134710000E-02
   6.360338221410000E-02   6.469191735510001E-02   6.579905948509999E-02
   6.692512666470000E-02   6.807044239120000E-02   6.923533569170000E-02
   7.042014121730000E-02   7.162519933990000E-02   7.285085624930000E-02
   7.409746405300000E-02   7.536538087740000E-02   7.665497097030000E-02
   7.796660480610000E-02   7.930065919180000E-02   8.065751737540000E-02
   8.203756915600000E-02   8.344121099580000E-02   8.486884613380000E-02
   8.632088470219999E-02   8.779774384330000E-02   8.929984783040000E-02
   9.082762818880000E-02   9.238152382020000E-02   9.396198112870000E-02
   9.556945414930000E-02   9.720440467770000E-02   9.886730240369999E-02
   1.005586250460000E-01   1.022788584870000E-01   1.040284969190000E-01
   1.058080429780000E-01   1.076180078940000E-01   1.094589116330000E-01
   1.113312830530000E-01   1.132356600490000E-01   1.151725897120000E-01
   1.171426284850000E-01   1.191463423210000E-01   1.211843068480000E-01
   1.232571075350000E-01   1.253653398570000E-01   1.275096094680000E-01
   1.296905323760000E-01   1.319087351160000E-01   1.341648549370000E-01
   1.364595399780000E-01   1.387934494570000E-01   1.411672538610000E-01
   1.435816351390000E-01   1.460372868950000E-01   1.485349145900000E-01
   1.510752357460000E-01   1.536589801460000E-01   1.562868900510000E-01
   1.589597204080000E-01   1.616782390700000E-01   1.644432270140000E-01
   1.672554785680000E-01   1.701158016380000E-01   1.730250179390000E-01
   1.759839632330000E-01   1.789934875660000E-01   1.820544555180000E-01
   1.851677464450000E-01   1.883342547360000E-01   1.915548900670000E-01
   1.948305776640000E-01   1.981622585680000E-01   2.015508899080000E-01
   2.049974451720000E-01   2.085029144880000E-01   2.120683049090000E-01
   2.156946407040000E-01   2.193829636480000E-01   2.231343333260000E-01
   2.269498274330000E-01   2.308305420860000E-01   2.347775921410000E-01
   2.387921115070000E-01   2.428752534800000E-01   2.470281910660000E-01
   2.512521173240000E-01   2.555482457060000E-01   2.599178104080000E-01
   2.643620667200000E-01   2.688822913910000E-01   2.734797829940000E-01
   2.781558623000000E-01   2.829118726560000E-01   2.877491803710000E-01
   2.926691751110000E-01   2.976732702940000E-01   3.027629035010000E-01
   3.079395368840000E-01   3.132046575900000E-01   3.185597781870000E-01
   3.240064370960000E-01   3.295461990380000E-01   3.351806554790000E-01
   3.409114250900000E-01   3.467401542090000E-01   3.526685173180000E-01
   3.586982175200000E-01   3.648309870320000E-01   3.710685876800000E-01
   3.774128114060000E-01   3.838654807830000E-01   3.904284495360000E-01
   3.971036030820000E-01   4.038928590610000E-01   4.107981678960000E-01
   4.178215133490000E-01   4.249649130900000E-01   4.322304192800000E-01
   4.396201191590000E-01   4.471361356440000E-01   4.547806279410000E-01
   4.625557921650000E-01   4.704638619710000E-01   4.785071091940000E-01
   4.866878445020000E-01   4.950084180630000E-01   5.034712202179999E-01
   5.120786821640000E-01   5.208332766590000E-01   5.297375187290000E-01
   5.387939663910000E-01   5.480052213860001E-01   5.573739299300000E-01
   5.669027834710000E-01   5.765945194650000E-01   5.864519221600000E-01
   5.964778233970000E-01   6.066751034230000E-01   6.170466917200000E-01
   6.275955678439999E-01   6.383247622829999E-01   6.492373573280000E-01
   6.603364879540000E-01   6.716253427290000E-01   6.831071647219999E-01
   6.947852524370000E-01   7.066629607629999E-01   7.187437019370000E-01
   7.310309465210000E-01   7.435282244019999E-01   7.562391258080000E-01
   7.691673023340000E-01   7.823164679950000E-01   7.956904002920000E-01
   8.092929412960000E-01   8.231279987550000E-01   8.371995472130001E-01
   8.515116291540000E-01   8.660683561610000E-01   8.808739101000000E-01
   8.959325443220000E-01   9.112485848790000E-01   9.268264317740000E-01
   9.426705602220000E-01   9.587855219330000E-01   9.751759464240000E-01
   9.918465423470000E-01   1.008802098840000E+00   1.026047486910000E+00
   1.043587660820000E+00   1.061427659530000E+00   1.079572608110000E+00
   1.098027719270000E+00   1.116798294790000E+00   1.135889727110000E+00
   1.155307500820000E+00   1.175057194270000E+00   1.195144481170000E+00
   1.215575132210000E+00   1.236355016710000E+00   1.257490104330000E+00
   1.278986466780000E+00   1.300850279550000E+00   1.323087823680000E+00
   1.345705487590000E+00   1.368709768910000E+00   1.392107276310000E+00
   1.415904731440000E+00   1.440108970850000E+00   1.464726947960000E+00
   1.489765735030000E+00   1.515232525220000E+00   1.541134634650000E+00
   1.567479504490000E+00   1.594274703110000E+00   1.621527928260000E+00
   1.649247009250000E+00   1.677439909250000E+00   1.706114727530000E+00
   1.735279701810000E+00   1.764943210620000E+00   1.795113775710000E+00
   1.825800064510000E+00   1.857010892590000E+00   1.888755226220000E+00
   1.921042184930000E+00   1.953881044130000E+00   1.987281237810000E+00
   2.021252361180000E+00   2.055804173490000E+00   2.090946600820000E+00
   2.126689738890000E+00   2.163043856030000E+00   2.200019396060000E+00
   2.237626981350000E+00   2.275877415820000E+00   2.314781688090000E+00
   2.354350974590000E+00   2.394596642830000E+00   2.435530254590000E+00
   2.477163569320000E+00   2.519508547470000E+00   2.562577353910000E+00
   2.606382361500000E+00   2.650936154550000E+00   2.696251532520000E+00
   2.742341513630000E+00   2.789219338650000E+00   2.836898474650000E+00
   2.885392618950000E+00   2.934715702970000E+00   2.984881896270000E+00
   3.035905610630000E+00   3.087801504180000E+00   3.140584485610000E+00
   3.194269718430000E+00   3.248872625390000E+00   3.304408892840000E+00
   3.360894475270000E+00   3.418345599910000E+00   3.476778771330000E+00
   3.536210776280000E+00   3.596658688400000E+00   3.658139873220000E+00
   3.720671993090000E+00   3.784273012280000E+00   3.848961202130000E+00
   3.914755146310000E+00   3.981673746140000E+00   4.049736226040000E+00
   4.118962139040000E+00   4.189371372420000E+00   4.260984153370000E+00
   4.333821054880000E+00   4.407903001560000E+00   4.483251275730000E+00
   4.559887523490000E+00   4.637833760950000E+00   4.717112380560000E+00
   4.797746157520000E+00   4.879758256380000E+00   4.963172237600000E+00
   5.048012064420000E+00   5.134302109670000E+00   5.222067162820000E+00
   5.311332437070000E+00   5.402123576610000E+00   5.494466663960000E+00
   5.588388227510000E+00   5.683915249120000E+00   5.781075171840000E+00
   5.879895907850000E+00   5.980405846420000E+00   6.082633862110000E+00
   6.186609323070000E+00   6.292362099420000E+00   6.399922571890000E+00
   6.509321640520000E+00   6.620590733560000E+00   6.733761816450000E+00
   6.848867401060000E+00   6.965940555000000E+00   7.085014911110000E+00
   7.206124677160000E+00   7.329304645640000E+00   7.454590203770000E+00
   7.582017343660000E+00   7.711622672680000E+00   7.843443423910000E+00
   7.977517466910000E+00   8.113883318559999E+00   8.252580154140000E+00
   8.393647818550001E+00   8.537126837800001E+00   8.683058430650000E+00
   8.831484520420000E+00   8.982447747040000E+00   9.135991479339999E+00
   9.292159827460001E+00   9.450997655529999E+00   9.612550594600000E+00
   9.776865055689999E+00   9.943988243180000E+00   1.011396816830000E+01
   1.028685366310000E+01   1.046269439400000E+01   1.064154087690000E+01
   1.082344449080000E+01   1.100845749310000E+01   1.119663303450000E+01
   1.138802517420000E+01   1.158268889530000E+01   1.178068012110000E+01
   1.198205573060000E+01   1.218687357510000E+01   1.239519249480000E+01
   1.260707233560000E+01   1.282257396670000E+01   1.304175929740000E+01
   1.326469129540000E+01   1.349143400480000E+01   1.372205256440000E+01
   1.395661322640000E+01   1.419518337550000E+01   1.443783154840000E+01
   1.468462745320000E+01   1.493564198950000E+01   1.519094726910000E+01
   1.545061663600000E+01   1.571472468840000E+01   1.598334729940000E+01
   1.625656163900000E+01   1.653444619640000E+01   1.681708080250000E+01
   1.710454665280000E+01   1.739692633050000E+01   1.769430383090000E+01
   1.799676458450000E+01   1.830439548270000E+01   1.861728490170000E+01
   1.893552272860000E+01   1.925920038710000E+01   1.958841086340000E+01
   1.992324873330000E+01   2.026381018940000E+01   2.061019306820000E+01
   2.096249687890000E+01   2.132082283160000E+01   2.168527386640000E+01
   2.205595468290000E+01   2.243297177070000E+01   2.281643343950000E+01
   2.320644985030000E+01   2.360313304730000E+01   2.400659699000000E+01
   2.441695758570000E+01   2.483433272310000E+01   2.525884230590000E+01
   2.569060828770000E+01   2.612975470630000E+01   2.657640772000000E+01
   2.703069564370000E+01   2.749274898540000E+01   2.796270048410000E+01
   2.844068514790000E+01   2.892684029240000E+01   2.942130558060000E+01
   2.992422306280000E+01   3.043573721750000E+01   3.095599499280000E+01
   3.148514584870000E+01   3.202334179990000E+01   3.257073745990000E+01
   3.312749008470000E+01   3.369375961860000E+01   3.426970873990000E+01
   3.485550290760000E+01   3.545131040910000E+01   3.605730240830000E+01
   3.667365299500000E+01   3.730053923480000E+01   3.793814121990000E+01
   3.858664212120000E+01   3.924622824030000E+01   3.991708906360000E+01
   4.059941731640000E+01   4.129340901840000E+01   4.199926354000000E+01
   4.271718365960000E+01   4.344737562170000E+01   4.419004919630000E+01
   4.494541773910000E+01   4.571369825300000E+01   4.649511145010000E+01
   4.728988181520000E+01   4.809823767050000E+01   4.892041124100000E+01
   4.975663872130000E+01   5.060716034330000E+01   5.147222044540000E+01
   5.235206754270000E+01   5.324695439820000E+01   5.415713809550000E+01
   5.508288011290000E+01   5.602444639810000E+01   5.698210744490000E+01
   5.795613837070000E+01   5.894681899590000E+01   5.995443392380000E+01
   6.097927262250000E+01   6.202162950860000E+01   6.308180403090000E+01
   6.416010075710000E+01   6.525682946089999E+01   6.637230521130000E+01
   6.750684846290000E+01   6.866078514800000E+01   6.983444677030000E+01
   7.102817050000000E+01   7.224229927090001E+01   7.347718187869999E+01
   7.473317308130000E+01   7.601063370049999E+01   7.730993072630000E+01
   7.863143742130001E+01   7.997553342900000E+01   8.134260488220001E+01
   8.273304451390000E+01   8.414725177050001E+01   8.558563292660000E+01
   8.704860120110000E+01   8.853657687650001E+01   9.004998741950000E+01
   9.158926760350001E+01   9.315485963400000E+01   9.474721327540000E+01
   9.636678597990000E+01   9.801404301960000E+01   9.968945761930000E+01
   1.013935110930000E+02   1.031266929840000E+02   1.048895011990000E+02
   1.066824421610000E+02   1.085060309460000E+02   1.103607914370000E+02
   1.122472564700000E+02   1.141659679890000E+02   1.161174772050000E+02
   1.181023447460000E+02   1.201211408290000E+02   1.221744454130000E+02
   1.242628483730000E+02   1.263869496670000E+02   1.285473595080000E+02
   1.307446985410000E+02   1.329795980170000E+02   1.352526999810000E+02
   1.375646574510000E+02   1.399161346070000E+02   1.423078069830000E+02
   1.447403616610000E+02   1.472144974660000E+02   1.497309251700000E+02
   1.522903676930000E+02   1.548935603150000E+02   1.575412508810000E+02
   1.602342000220000E+02   1.629731813700000E+02   1.657589817820000E+02
   1.685924015650000E+02   1.714742547040000E+02   1.744053691000000E+02
   1.773865868060000E+02   1.804187642690000E+02   1.835027725730000E+02
   1.866394976950000E+02   1.898298407560000E+02   1.930747182790000E+02
   1.963750624540000E+02   1.997318214070000E+02   2.031459594700000E+02
    </PP_R>
    <PP_RAB>
   1.312898398660000E-06   1.335340564480000E-06   1.358166347810000E-06
   1.381382306060000E-06   1.404995108700000E-06   1.429011539250000E-06
   1.453438497170000E-06   1.478282999840000E-06   1.503552184610000E-06
   1.529253310830000E-06   1.555393761930000E-06   1.581981047560000E-06
   1.609022805740000E-06   1.636526805030000E-06   1.664500946800000E-06
   1.692953267490000E-06   1.721891940880000E-06   1.751325280520000E-06
   1.781261742020000E-06   1.811709925540000E-06   1.842678578270000E-06
   1.874176596900000E-06   1.906213030200000E-06   1.938797081610000E-06
   1.971938111910000E-06   2.005645641870000E-06   2.039929355010000E-06
   2.074799100380000E-06   2.110264895390000E-06   2.146336928660000E-06
   2.183025563000000E-06   2.220341338340000E-06   2.258294974780000E-06
   2.296897375660000E-06   2.336159630720000E-06   2.376093019230000E-06
   2.416709013290000E-06   2.458019281080000E-06   2.500035690240000E-06
   2.542770311280000E-06   2.586235421030000E-06   2.630443506170000E-06
   2.675407266820000E-06   2.721139620210000E-06   2.767653704360000E-06
   2.814962881860000E-06   2.863080743730000E-06   2.912021113290000E-06
   2.961798050160000E-06   3.012425854310000E-06   3.063919070100000E-06
   3.116292490560000E-06   3.169561161540000E-06   3.223740386120000E-06
   3.278845728920000E-06   3.334893020660000E-06   3.391898362620000E-06
   3.449878131350000E-06   3.508848983310000E-06   3.568827859690000E-06
   3.629831991240000E-06   3.691878903290000E-06   3.754986420700000E-06
   3.819172673060000E-06   3.884456099810000E-06   3.950855455640000E-06
   4.018389815790000E-06   4.087078581570000E-06   4.156941485940000E-06
   4.227998599160000E-06   4.300270334560000E-06   4.373777454410000E-06
   4.448541075890000E-06   4.524582677140000E-06   4.601924103440000E-06
   4.680587573480000E-06   4.760595685750000E-06   4.841971425050000E-06
   4.924738169040000E-06   5.008919695010000E-06   5.094540186680000E-06
   5.181624241160000E-06   5.270196876020000E-06   5.360283536450000E-06
   5.451910102630000E-06   5.545102897070000E-06   5.639888692270000E-06
   5.736294718360000E-06   5.834348670920000E-06   5.934078718960000E-06
   6.035513512980000E-06   6.138682193240000E-06   6.243614398100000E-06
   6.350340272560000E-06   6.458890476900000E-06   6.569296195490000E-06
   6.681589145750000E-06   6.795801587280000E-06   6.911966331110000E-06
   7.030116749100000E-06   7.150286783600000E-06   7.272510957130000E-06
   7.396824382330000E-06   7.523262772030000E-06   7.651862449550001E-06
   7.782660359090001E-06   7.915694076339999E-06   8.051001819320000E-06
   8.188622459340001E-06   8.328595532130001E-06   8.470961249249999E-06
   8.615760509620001E-06   8.763034911260000E-06   8.912826763249999E-06
   9.065179097910000E-06   9.220135683100001E-06   9.377741034860001E-06
   9.538040430150001E-06   9.701079919880000E-06   9.866906342149999E-06
   1.003556733570000E-05   1.020711135350000E-05   1.038158767690000E-05
   1.055904642960000E-05   1.073953859190000E-05   1.092311601590000E-05
   1.110983143980000E-05   1.129973850320000E-05   1.149289176280000E-05
   1.168934670790000E-05   1.188915977600000E-05   1.209238836970000E-05
   1.229909087260000E-05   1.250932666630000E-05   1.272315614750000E-05
   1.294064074520000E-05   1.316184293860000E-05   1.338682627480000E-05
   1.361565538710000E-05   1.384839601380000E-05   1.408511501660000E-05
   1.432588040050000E-05   1.457076133250000E-05   1.481982816240000E-05
   1.507315244200000E-05   1.533080694670000E-05   1.559286569560000E-05
   1.585940397310000E-05   1.613049835040000E-05   1.640622670770000E-05
   1.668666825660000E-05   1.697190356230000E-05   1.726201456740000E-05
   1.755708461540000E-05   1.785719847400000E-05   1.816244236010000E-05
   1.847290396450000E-05   1.878867247680000E-05   1.910983861100000E-05
   1.943649463210000E-05   1.976873438200000E-05   2.010665330680000E-05
   2.045034848390000E-05   2.079991865050000E-05   2.115546423120000E-05
   2.151708736740000E-05   2.188489194640000E-05   2.225898363130000E-05
   2.263946989160000E-05   2.302646003340000E-05   2.342006523160000E-05
   2.382039856140000E-05   2.422757503080000E-05   2.464171161360000E-05
   2.506292728330000E-05   2.549134304700000E-05   2.592708198040000E-05
   2.637026926260000E-05   2.682103221300000E-05   2.727950032690000E-05
   2.774580531330000E-05   2.822008113270000E-05   2.870246403540000E-05
   2.919309260050000E-05   2.969210777620000E-05   3.019965291990000E-05
   3.071587383960000E-05   3.124091883540000E-05   3.177493874260000E-05
   3.231808697490000E-05   3.287051956820000E-05   3.343239522560000E-05
   3.400387536330000E-05   3.458512415640000E-05   3.517630858640000E-05
   3.577759848910000E-05   3.638916660360000E-05   3.701118862140000E-05
   3.764384323760000E-05   3.828731220150000E-05   3.894178036930000E-05
   3.960743575700000E-05   4.028446959460000E-05   4.097307638080000E-05
   4.167345393890000E-05   4.238580347400000E-05   4.311032963020000E-05
   4.384724054980000E-05   4.459674793320000E-05   4.535906709930000E-05
   4.613441704770000E-05   4.692302052130000E-05   4.772510407070000E-05
   4.854089811900000E-05   4.937063702800000E-05   5.021455916560000E-05
   5.107290697450000E-05   5.194592704110000E-05   5.283387016750000E-05
   5.373699144230000E-05   5.465555031500000E-05   5.558981066960000E-05
   5.654004090110000E-05   5.750651399220000E-05   5.848950759200000E-05
   5.948930409560000E-05   6.050619072500000E-05   6.154045961219999E-05
   6.259240788260000E-05   6.366233774050000E-05   6.475055655620000E-05
   6.585737695370000E-05   6.698311690130001E-05   6.812809980220000E-05
   6.929265458779999E-05   7.047711581220000E-05   7.168182374820000E-05
   7.290712448510000E-05   7.415337002800000E-05   7.542091839909999E-05
   7.671013374069999E-05   7.802138641930000E-05   7.935505313240000E-05
   8.071151701669999E-05   8.209116775810000E-05   8.349440170330000E-05
   8.492162197450000E-05   8.637323858440001E-05   8.784966855440000E-05
   8.935133603410001E-05   9.087867242370001E-05   9.243211649730001E-05
   9.401211452930001E-05   9.561912042260000E-05   9.725359583880000E-05
   9.891601033130000E-05   1.006068414790000E-04   1.023265750260000E-04
   1.040757050180000E-04   1.058547339460000E-04   1.076641728900000E-04
   1.095045416680000E-04   1.113763689820000E-04   1.132801925710000E-04
   1.152165593680000E-04   1.171860256530000E-04   1.191891572150000E-04
   1.212265295150000E-04   1.232987278520000E-04   1.254063475270000E-04
   1.275499940190000E-04   1.297302831570000E-04   1.319478412940000E-04
   1.342033054930000E-04   1.364973237040000E-04   1.388305549550000E-04
   1.412036695380000E-04   1.436173492030000E-04   1.460722873540000E-04
   1.485691892460000E-04   1.511087721910000E-04   1.536917657620000E-04
   1.563189120030000E-04   1.589909656430000E-04   1.617086943110000E-04
   1.644728787570000E-04   1.672843130790000E-04   1.701438049470000E-04
   1.730521758370000E-04   1.760102612690000E-04   1.790189110430000E-04
   1.820789894860000E-04   1.851913757000000E-04   1.883569638120000E-04
   1.915766632350000E-04   1.948513989260000E-04   1.981821116530000E-04
   2.015697582660000E-04   2.050153119700000E-04   2.085197626060000E-04