<UPF version="2.0.1">
  <PP_INFO>
    Generated by new atomic code, or converted to UPF format
    Author: 
    Generation date: 
    Pseudopotential type: US
    Element: H
    Functional:  SLA  PZ   NOGX NOGC
    Suggested minimum cutoff for wavefunctions:   0. Ry
    Suggested minimum cutoff for charge density:   0. Ry
    The Pseudo was generated with a Non-Relativistic Calculation
    L component and cutoff radius for Local Potential:  0   0.0000
    Valence configuration: 
    nl pn  l   occ       Rcut    Rcut US       E pseu
    1S  1  0  1.00      0.000      0.000     0.000000
    Generation configuration: not available.
  </PP_INFO>
    <!-- END OF HUMAN READABLE SECTION -->
  <PP_HEADER generated="Generated by new atomic code, or converted to UPF format" author="" date="" comment="" element="H" pseudo_type="US" relativistic="no" is_ultrasoft="true" is_paw="false" is_coulomb="false" has_so="false" has_wfc="false" has_gipaw="false" paw_as_gipaw="false" core_correction="false" functional=" SLA  PZ   NOGX NOGC" z_valence="1.0000000000000000" total_psenergy="-0.89170443074000005" wfc_cutoff="0.0000000000000000" rho_cutoff="0.0000000000000000" l_max="0" l_max_rho="0" l_local="0" mesh_size="615" number_of_wfc="1" number_of_proj="2"/>
  <PP_MESH>
    <PP_R>
   0.000000000000000E+00   4.237080908000000E-05   8.546588800790000E-05
   1.292976171660000E-04   1.738785885620000E-04   2.192216094460000E-04
   2.653397059910000E-04   3.122461270330000E-04   3.599543478800000E-04
   4.084780741790000E-04   4.578312458600000E-04   5.080280411320000E-04
   5.590828805650000E-04   6.110104312240000E-04   6.638256108910001E-04
   7.175435923460000E-04   7.721798077230000E-04   8.277499529510000E-04
   8.842699922580000E-04   9.417561627559999E-04   1.000224979110000E-03
   1.059693238280000E-03   1.120178024350000E-03   1.181696713420000E-03
   1.244266978620000E-03   1.307906795190000E-03   1.372634445600000E-03
   1.438468524860000E-03   1.505427945820000E-03   1.573531944640000E-03
   1.642800086270000E-03   1.713252270110000E-03   1.784908735710000E-03
   1.857790068590000E-03   1.931917206130000E-03   2.007311443640000E-03
   2.083994440420000E-03   2.161988226010000E-03   2.241315206510000E-03
   2.321998171040000E-03   2.404060298240000E-03   2.487525162980000E-03
   2.572416743090000E-03   2.658759426300000E-03   2.746578017170000E-03
   2.835897744290000E-03   2.926744267490000E-03   3.019143685220000E-03
   3.113122542040000E-03   3.208707836260000E-03   3.305927027690000E-03
   3.404808045510000E-03   3.505379296330000E-03   3.607669672330000E-03
   3.711708559540000E-03   3.817525846340000E-03   3.925151931970000E-03
   4.034617735330000E-03   4.145954703830000E-03   4.259194822420000E-03
   4.374370622800000E-03   4.491515192740000E-03   4.610662185620000E-03
   4.731845830060000E-03   4.855100939780000E-03   4.980462923580000E-03
   5.107967795540000E-03   5.237652185330000E-03   5.369553348780000E-03
   5.503709178540000E-03   5.640158214980000E-03   5.778939657260000E-03
   5.920093374610000E-03   6.063659917770000E-03   6.209680530620000E-03
   6.358197162060000E-03   6.509252478030000E-03   6.662889873830000E-03
   6.819153486480000E-03   6.978088207510000E-03   7.139739695780000E-03
   7.304154390640000E-03   7.471379525250000E-03   7.641463140160000E-03
   7.814454097089999E-03   7.990402093000001E-03   8.169357674350000E-03
   8.351372251600001E-03   8.536498114040000E-03   8.724788444719999E-03
   8.916297335829999E-03   9.111079804160000E-03   9.309191806950000E-03
   9.510690257940000E-03   9.715633043730000E-03   9.924079040420000E-03
   1.013608813050000E-02   1.035172122010000E-02   1.057104025650000E-02
   1.079410824560000E-02   1.102098927080000E-02   1.125174851040000E-02
   1.148645225720000E-02   1.172516793690000E-02   1.196796412810000E-02
   1.221491058130000E-02   1.246607823950000E-02   1.272153925820000E-02
   1.298136702660000E-02   1.324563618800000E-02   1.351442266190000E-02
   1.378780366550000E-02   1.406585773580000E-02   1.434866475240000E-02
   1.463630596020000E-02   1.492886399300000E-02   1.522642289710000E-02
   1.552906815540000E-02   1.583688671210000E-02   1.614996699730000E-02
   1.646839895310000E-02   1.679227405880000E-02   1.712168535740000E-02
   1.745672748240000E-02   1.779749668490000E-02   1.814409086140000E-02
   1.849660958160000E-02   1.885515411740000E-02   1.921982747160000E-02
   1.959073440780000E-02   1.996798148050000E-02   2.035167706540000E-02
   2.074193139090000E-02   2.113885656930000E-02   2.154256662980000E-02
   2.195317755030000E-02   2.237080729150000E-02   2.279557583020000E-02
   2.322760519430000E-02   2.366701949740000E-02   2.411394497480000E-02
   2.456851001940000E-02   2.503084521920000E-02   2.550108339390000E-02
   2.597935963390000E-02   2.646581133880000E-02   2.696057825670000E-02
   2.746380252450000E-02   2.797562870890000E-02   2.849620384760000E-02
   2.902567749170000E-02   2.956420174890000E-02   3.011193132670000E-02
   3.066902357720000E-02   3.123563854220000E-02   3.181193899930000E-02
   3.239809050840000E-02   3.299426145950000E-02   3.360062312100000E-02
   3.421734968880000E-02   3.484461833660000E-02   3.548260926650000E-02
   3.613150576100000E-02   3.679149423550000E-02   3.746276429180000E-02
   3.814550877290000E-02   3.883992381810000E-02   3.954620891930000E-02
   4.026456697860000E-02   4.099520436640000E-02   4.173833098070000E-02
   4.249416030730000E-02   4.326290948140000E-02   4.404479934980000E-02
   4.484005453420000E-02   4.564890349620000E-02   4.647157860230000E-02
   4.730831619120000E-02   4.815935664140000E-02   4.902494444050000E-02
   4.990532825490000E-02   5.080076100190000E-02   5.171149992210000E-02
   5.263780665310000E-02   5.357994730480000E-02   5.453819253620000E-02
   5.551281763240000E-02   5.650410258450000E-02   5.751233216940000E-02
   5.853779603190000E-02   5.958078876800000E-02   6.064161000930000E-02
   6.172056450930000E-02   6.281796223060000E-02   6.393411843440000E-02
   6.506935377080000E-02   6.622399437090000E-02   6.739837194060000E-02
   6.859282385600000E-02   6.980769325980000E-02   7.104332916059999E-02
   7.230008653260001E-02   7.357832641800000E-02   7.487841603030000E-02
   7.620072886010000E-02   7.754564478220000E-02   7.891355016510000E-02
   8.030483798140001E-02   8.171990792130000E-02   8.315916650690000E-02
   8.462302720930000E-02   8.611191056750001E-02   8.762624430880001E-02
   8.916646347190001E-02   9.073301053220000E-02   9.232633552810000E-02
   9.394689619110000E-02   9.559515807700000E-02   9.727159469950000E-02
   9.897668766640000E-02   1.007109268180000E-01   1.024748103670000E-01
   1.042688450450000E-01   1.060935462410000E-01   1.079494381570000E-01
   1.098370539560000E-01   1.117569359120000E-01   1.137096355710000E-01
   1.156957139060000E-01   1.177157414770000E-01   1.197702986010000E-01
   1.218599755120000E-01   1.239853725330000E-01   1.261471002500000E-01
   1.283457796850000E-01   1.305820424770000E-01   1.328565310600000E-01
   1.351698988510000E-01   1.375228104360000E-01   1.399159417610000E-01
   1.423499803260000E-01   1.448256253830000E-01   1.473435881370000E-01
   1.499045919510000E-01   1.525093725510000E-01   1.551586782390000E-01
   1.578532701110000E-01   1.605939222710000E-01   1.633814220540000E-01
   1.662165702560000E-01   1.691001813590000E-01   1.720330837700000E-01
   1.750161200550000E-01   1.780501471810000E-01   1.811360367670000E-01
   1.842746753290000E-01   1.874669645360000E-01   1.907138214730000E-01
   1.940161788970000E-01   1.973749855130000E-01   2.007912062400000E-01
   2.042658224930000E-01   2.077998324610000E-01   2.113942513980000E-01
   2.150501119100000E-01   2.187684642550000E-01   2.225503766450000E-01
   2.263969355480000E-01   2.303092460080000E-01   2.342884319550000E-01
   2.383356365320000E-01   2.424520224230000E-01   2.466387721860000E-01
   2.508970885930000E-01   2.552281949770000E-01   2.596333355790000E-01
   2.641137759120000E-01   2.686708031190000E-01   2.733057263470000E-01
   2.780198771190000E-01   2.828146097190000E-01   2.876913015810000E-01
   2.926513536850000E-01   2.976961909570000E-01   3.028272626820000E-01
   3.080460429170000E-01   3.133540309160000E-01   3.187527515630000E-01
   3.242437558040000E-01   3.298286211000000E-01   3.355089518730000E-01
   3.412863799740000E-01   3.471625651440000E-01   3.531391955000000E-01
   3.592179880100000E-01   3.654006889950000E-01   3.716890746240000E-01
   3.780849514300000E-01   3.845901568230000E-01   3.912065596240000E-01
   3.979360605960000E-01   4.047805929960000E-01   4.117421231250000E-01
   4.188226508960000E-01   4.260242104080000E-01   4.333488705290000E-01
   4.407987354920000E-01   4.483759455000000E-01   4.560826773370000E-01
   4.639211450000000E-01   4.718936003290000E-01   4.800023336540000E-01
   4.882496744590000E-01   4.966379920450000E-01   5.051696962140000E-01
   5.138472379580000E-01   5.226731101680000E-01   5.316498483450000E-01
   5.407800313340000E-01   5.500662820590000E-01   5.595112682800000E-01
   5.691177033590000E-01   5.788883470380000E-01   5.888260062360000E-01
   5.989335358480000E-01   6.092138395720000E-01   6.196698707420000E-01
   6.303046331720000E-01   6.411211820229999E-01   6.521226246810000E-01
   6.633121216480000E-01   6.746928874500000E-01   6.862681915590000E-01
   6.980413593380000E-01   7.100157729890000E-01   7.221948725290001E-01
   7.345821567790000E-01   7.471811843660000E-01   7.599955747450000E-01
   7.730290092440000E-01   7.862852321170000E-01   7.997680516190000E-01
   8.134813411030000E-01   8.274290401330000E-01   8.416151556120000E-01
   8.560437629360000E-01   8.707190071670000E-01   8.856451042160000E-01
   9.008263420630001E-01   9.162670819840000E-01   9.319717598050000E-01
   9.479448871760000E-01   9.641910528660000E-01   9.807149240860000E-01
   9.975212478230000E-01   1.014614852210000E+00   1.032000647910000E+00
   1.049683629520000E+00   1.067668877020000E+00   1.085961557230000E+00
   1.104566925280000E+00   1.123490326120000E+00   1.142737196100000E+00
   1.162313064460000E+00   1.182223554960000E+00   1.202474387520000E+00
   1.223071379790000E+00   1.244020448900000E+00   1.265327613110000E+00
   1.286998993560000E+00   1.309040816010000E+00   1.331459412660000E+00
   1.354261223920000E+00   1.377452800330000E+00   1.401040804370000E+00
   1.425032012420000E+00   1.449433316680000E+00   1.474251727190000E+00
   1.499494373790000E+00   1.525168508210000E+00   1.551281506120000E+00
   1.577840869280000E+00   1.604854227700000E+00   1.632329341770000E+00
   1.660274104580000E+00   1.688696544100000E+00   1.717604825570000E+00
   1.747007253760000E+00   1.776912275420000E+00   1.807328481700000E+00
   1.838264610570000E+00   1.869729549390000E+00   1.901732337420000E+00
   1.934282168460000E+00   1.967388393420000E+00   2.001060523110000E+00
   2.035308230850000E+00   2.070141355360000E+00   2.105569903520000E+00
   2.141604053270000E+00   2.178254156520000E+00   2.215530742130000E+00
   2.253444518950000E+00   2.292006378880000E+00   2.331227399980000E+00
   2.371118849700000E+00   2.411692188080000E+00   2.452959071050000E+00
   2.494931353800000E+00   2.537621094140000E+00   2.581040556010000E+00
   2.625202212990000E+00   2.670118751860000E+00   2.715803076280000E+00
   2.762268310470000E+00   2.809527802990000E+00   2.857595130570000E+00
   2.906484102040000E+00   2.956208762240000E+00   3.006783396120000E+00
   3.058222532780000E+00   3.110540949690000E+00   3.163753676920000E+00
   3.217876001460000E+00   3.272923471600000E+00   3.328911901420000E+00
   3.385857375310000E+00   3.443776252600000E+00   3.502685172270000E+00
   3.562601057700000E+00   3.623541121580000E+00   3.685522870800000E+00
   3.748564111520000E+00   3.812682954260000E+00   3.877897819140000E+00
   3.944227441120000E+00   4.011690875420000E+00   4.080307502980000E+00
   4.150097036020000E+00   4.221079523720000E+00   4.293275358000000E+00
   4.366705279300000E+00   4.441390382620000E+00   4.517352123560000E+00
   4.594612324440000E+00   4.673193180630000E+00   4.753117266890000E+00
   4.834407543870000E+00   4.917087364670000E+00   5.001180481630000E+00
   5.086711053050000E+00   5.173703650230000E+00   5.262183264450000E+00
   5.352175314190000E+00   5.443705652430000E+00   5.536800574060000E+00
   5.631486823440000E+00   5.727791602120000E+00   5.825742576580000E+00
   5.925367886250000E+00   6.026696151560000E+00   6.129756482140000E+00
   6.234578485240000E+00   6.341192274190000E+00   6.449628477070000E+00
   6.559918245510000E+00   6.672093263610000E+00   6.786185757100000E+00
   6.902228502530000E+00   7.020254836750000E+00   7.140298666430000E+00
   7.262394477840000E+00   7.386577346750000E+00   7.512882948500000E+00
   7.641347568230000E+00   7.772008111350000E+00   7.904902114100000E+00
   8.040067754360001E+00   8.177543862609999E+00   8.317369933060000E+00
   8.459586135040000E+00   8.604233324510000E+00   8.751353055819999E+00
   8.900987593609999E+00   9.053179924989999E+00   9.207973771880001E+00
   9.365413603540000E+00   9.525544649410000E+00   9.688412912020000E+00
   9.854065180279999E+00   1.002254904290000E+01   1.019391290200000E+01
   1.036820598710000E+01   1.054547836920000E+01   1.072578097530000E+01
   1.090916560290000E+01   1.109568493470000E+01   1.128539255420000E+01
   1.147834296060000E+01   1.167459158500000E+01   1.187419480580000E+01
   1.207720996500000E+01   1.228369538500000E+01   1.249371038520000E+01
   1.270731529860000E+01   1.292457149000000E+01   1.314554137270000E+01
   1.337028842720000E+01   1.359887721890000E+01   1.383137341700000E+01
   1.406784381310000E+01   1.430835634060000E+01   1.455298009410000E+01
   1.480178534930000E+01   1.505484358310000E+01   1.531222749420000E+01
   1.557401102410000E+01   1.584026937800000E+01   1.611107904700000E+01
   1.638651782920000E+01   1.666666485310000E+01   1.695160059930000E+01
   1.724140692450000E+01   1.753616708440000E+01   1.783596575780000E+01
   1.814088907110000E+01   1.845102462290000E+01   1.876646150910000E+01
   1.908729034870000E+01   1.941360330950000E+01   1.974549413500000E+01
   2.008305817100000E+01   2.042639239310000E+01   2.077559543450000E+01
   2.113076761450000E+01   2.149201096730000E+01   2.185942927110000E+01
   2.223312807800000E+01   2.261321474440000E+01   2.299979846200000E+01
   2.339299028870000E+01   2.379290318090000E+01   2.419965202590000E+01
   2.461335367470000E+01   2.503412697580000E+01   2.546209280930000E+01
   2.589737412150000E+01   2.634009596020000E+01   2.679038551080000E+01
   2.724837213290000E+01   2.771418739710000E+01   2.818796512320000E+01
   2.866984141830000E+01   2.915995471610000E+01   2.965844581680000E+01
   3.016545792710000E+01   3.068113670180000E+01   3.120563028560000E+01
   3.173908935510000E+01   3.228166716290000E+01   3.283351958120000E+01
   3.339480514630000E+01   3.396568510480000E+01   3.454632345960000E+01
   3.513688701660000E+01   3.573754543340000E+01   3.634847126760000E+01
   3.696984002630000E+01   3.760183021680000E+01   3.824462339750000E+01
   3.889840423060000E+01   3.956336053460000E+01   4.023968333860000E+01
   4.092756693700000E+01   4.162720894550000E+01   4.233881035780000E+01
   4.306257560300000E+01   4.379871260500000E+01   4.454743284180000E+01
   4.530895140600000E+01   4.608348706730000E+01   4.687126233480000E+01
   4.767250352100000E+01   4.848744080720000E+01   4.931630830880000E+01
   5.015934414370000E+01   5.101679049960000E+01   5.188889370420000E+01
   5.277590429610000E+01   5.367807709610000E+01   5.459567128100000E+01
   5.552895045790000E+01   5.647818273980000E+01   5.744364082280000E+01
   5.842560206440000E+01   5.942434856290000E+01   6.044016723900000E+01
   6.147334991760000E+01   6.252419341220000E+01   6.359299960980000E+01
   6.468007555769999E+01   6.578573355180001E+01   6.691029122620000E+01
   6.805407164460000E+01   6.921740339300000E+01   7.040062067400000E+01
   7.160406340320000E+01   7.282807730630000E+01   7.407301401880000E+01
   7.533923118700000E+01   7.662709257050000E+01   7.793696814700000E+01
   7.926923421840000E+01   8.062427351890000E+01   8.200247532520000E+01
    </PP_R>
    <PP_RAB>
   4.201274875710000E-05   4.273089806350000E-05   4.346132313010000E-05
   4.420423379380000E-05   4.495984347840000E-05   4.572836925610000E-05
   4.651003190940000E-05   4.730505599490000E-05   4.811366990760000E-05
   4.893610594650000E-05   4.977260038180000E-05   5.062339352200000E-05
   5.148872978360000E-05   5.236885776090000E-05   5.326403029760000E-05
   5.417450455950000E-05   5.510054210830000E-05   5.604240897660000E-05
   5.700037574450000E-05   5.797471761730000E-05   5.896571450470000E-05
   5.997365110080000E-05   6.099881696630000E-05   6.204150661160000E-05
   6.310201958120000E-05   6.418066053990000E-05   6.527773936040000E-05
   6.639357121229999E-05   6.752847665240000E-05   6.868278171710000E-05
   6.985681801590000E-05   7.105092282679999E-05   7.226543919290000E-05
   7.350071602120000E-05   7.475710818300000E-05   7.603497661540000E-05
   7.733468842520000E-05   7.865661699450001E-05   8.000114208770000E-05
   8.136864996109999E-05   8.275953347290000E-05   8.417419219730000E-05
   8.561303253830000E-05   8.707646784680000E-05   8.856491853960000E-05
   9.007881221960000E-05   9.161858379930000E-05   9.318467562520000E-05
   9.477753760520000E-05   9.639762733780000E-05   9.804541024330000E-05
   9.972135969789999E-05   1.014259571690000E-04   1.031596923560000E-04
   1.049230633260000E-04   1.067165766610000E-04   1.085407476040000E-04
   1.103961002030000E-04   1.122831674660000E-04   1.142024915100000E-04
   1.161546237200000E-04   1.181401249050000E-04   1.201595654630000E-04
   1.222135255380000E-04   1.243025951940000E-04   1.264273745800000E-04
   1.285884741050000E-04   1.307865146100000E-04   1.330221275500000E-04
   1.352959551730000E-04   1.376086507060000E-04   1.399608785410000E-04
   1.423533144280000E-04   1.447866456680000E-04   1.472615713100000E-04
   1.497788023510000E-04   1.523390619440000E-04   1.549430856020000E-04
   1.575916214090000E-04   1.602854302400000E-04   1.630252859740000E-04
   1.658119757170000E-04   1.686463000330000E-04   1.715290731670000E-04
   1.744611232840000E-04   1.774432927060000E-04   1.804764381530000E-04
   1.835614309880000E-04   1.866991574700000E-04   1.898905190070000E-04
   1.931364324150000E-04   1.964378301840000E-04   1.997956607390000E-04
   2.032108887220000E-04   2.066844952610000E-04   2.102174782560000E-04
   2.138108526640000E-04   2.174656507930000E-04   2.211829225950000E-04
   2.249637359710000E-04   2.288091770750000E-04   2.327203506280000E-04
   2.366983802340000E-04   2.407444087050000E-04   2.448595983860000E-04
   2.490451314910000E-04   2.533022104430000E-04   2.576320582180000E-04
   2.620359186990000E-04   2.665150570280000E-04   2.710707599760000E-04
   2.757043363080000E-04   2.804171171600000E-04   2.852104564240000E-04
   2.900857311330000E-04   2.950443418590000E-04   3.000877131150000E-04
   3.052172937650000E-04   3.104345574360000E-04   3.157410029490000E-04
   3.211381547420000E-04   3.266275633120000E-04   3.322108056610000E-04
   3.378894857460000E-04   3.436652349420000E-04   3.495397125090000E-04
   3.555146060720000E-04   3.615916321020000E-04   3.677725364110000E-04
   3.740590946520000E-04   3.804531128340000E-04   3.869564278320000E-04
   3.935709079240000E-04   4.002984533220000E-04   4.071409967200000E-04
   4.141005038470000E-04   4.211789740360000E-04   4.283784407940000E-04
   4.357009723890000E-04   4.431486724420000E-04   4.507236805330000E-04
   4.584281728150000E-04   4.662643626410000E-04   4.742345011950000E-04
   4.823408781450000E-04   4.905858222960000E-04   4.989717022600000E-04
   5.075009271380000E-04   5.161759472120000E-04   5.249992546480000E-04
   5.339733842099999E-04   5.431009139920000E-04   5.523844661580000E-04
   5.618267076920000E-04   5.714303511670000E-04   5.811981555240000E-04
   5.911329268650000E-04   6.012375192560000E-04   6.115148355530000E-04
   6.219678282280000E-04   6.325995002250000E-04   6.434129058170000E-04
   6.544111514860000E-04   6.655973968160000E-04   6.769748553980000E-04
   6.885467957550000E-04   7.003165422830000E-04   7.122874762030000E-04
   7.244630365300000E-04   7.368467210690000E-04   7.494420874130000E-04
   7.622527539650000E-04   7.752824009840000E-04   7.885347716340000E-04
   8.020136730660000E-04   8.157229775060000E-04   8.296666233720000E-04
   8.438486164040000E-04   8.582730308150000E-04   8.729440104600000E-04
   8.878657700260000E-04   9.030425962470000E-04   9.184788491310000E-04
   9.341789632160000E-04   9.501474488390000E-04   9.663888934380000E-04
   9.829079628659999E-04   9.997094027320000E-04   1.016798039760000E-03
   1.034178783200000E-03   1.051856626180000E-03   1.069836647220000E-03
   1.088124011630000E-03   1.106723973000000E-03   1.125641874760000E-03
   1.144883151650000E-03   1.164453331310000E-03   1.184358035890000E-03
   1.204602983600000E-03   1.225193990450000E-03   1.246136971820000E-03
   1.267437944230000E-03   1.289103027030000E-03   1.311138444190000E-03
   1.333550526050000E-03   1.356345711170000E-03   1.379530548170000E-03
   1.403111697590000E-03   1.427095933860000E-03   1.451490147180000E-03
   1.476301345530000E-03   1.501536656680000E-03   1.527203330260000E-03
   1.553308739810000E-03   1.579860384900000E-03   1.606865893300000E-03
   1.634333023180000E-03   1.662269665320000E-03   1.690683845360000E-03
   1.719583726150000E-03   1.748977610080000E-03   1.778873941430000E-03
   1.809281308830000E-03   1.840208447750000E-03   1.871664242950000E-03
   1.903657731060000E-03   1.936198103200000E-03   1.969294707590000E-03
   2.002957052240000E-03   2.037194807700000E-03   2.072017809800000E-03
   2.107436062520000E-03   2.143459740840000E-03   2.180099193670000E-03
   2.217364946810000E-03   2.255267705990000E-03   2.293818359940000E-03
   2.333027983520000E-03   2.372907840890000E-03   2.413469388770000E-03
   2.454724279700000E-03   2.496684365420000E-03   2.539361700240000E-03
   2.582768544540000E-03   2.626917368260000E-03   2.671820854510000E-03
   2.717491903190000E-03   2.763943634700000E-03   2.811189393740000E-03
   2.859242753090000E-03   2.908117517560000E-03   2.957827727910000E-03
   3.008387664940000E-03   3.059811853520000E-03   3.112115066840000E-03
   3.165312330600000E-03   3.219418927340000E-03   3.274450400840000E-03
   3.330422560570000E-03   3.387351486260000E-03   3.445253532490000E-03
   3.504145333380000E-03   3.564043807420000E-03   3.624966162280000E-03
   3.686929899780000E-03   3.749952820880000E-03   3.814053030870000E-03
   3.879248944490000E-03   3.945559291260000E-03   4.013003120870000E-03
   4.081599808620000E-03   4.151369061010000E-03   4.222330921400000E-03
   4.294505775760000E-03   4.367914358530000E-03   4.442577758570000E-03
   4.518517425230000E-03   4.595755174510000E-03   4.674313195320000E-03
   4.754214055860000E-03   4.835480710100000E-03   4.918136504370000E-03
   5.002205184100000E-03   5.087710900570000E-03   5.174678217940000E-03
   5.263132120230000E-03   5.353098018520000E-03   5.444601758290000E-03
   5.537669626790000E-03   5.632328360610000E-03   5.728605153390000E-03
   5.826527663560000E-03   5.926124022390000E-03   6.027422841980000E-03
   6.130453223510000E-03   6.235244765620000E-03   6.341827572890000E-03
   6.450232264510000E-03   6.560489983040000E-03   6.672632403390000E-03
   6.786691741910000E-03   6.902700765640000E-03   7.020692801730000E-03
   7.140701747000000E-03   7.262762077700000E-03   7.386908859410000E-03
   7.513177757090000E-03   7.641605045360000E-03   7.772227618880000E-03
   7.905083003000000E-03   8.040209364499999E-03   8.177645522559999E-03
   8.317430959930001E-03   8.459605834270001E-03   8.604210989670000E-03
   8.751287968379999E-03   8.900879022789999E-03   9.053027127489999E-03
   9.207775991710000E-03   9.365170071790000E-03   9.525254584010000E-03
   9.688075517550000E-03   9.853679647710001E-03   1.002211454940000E-02
   1.019342861060000E-02   1.036767104660000E-02   1.054489191390000E-02
   1.072514212450000E-02   1.090847346100000E-02   1.109493859080000E-02
   1.128459108180000E-02   1.147748541740000E-02   1.167367701250000E-02
   1.187322222910000E-02   1.207617839260000E-02   1.228260380860000E-02
   1.249255777890000E-02   1.270610061940000E-02   1.292329367660000E-02
   1.314419934610000E-02   1.336888108970000E-02   1.359740345420000E-02
   1.382983208950000E-02   1.406623376800000E-02   1.430667640320000E-02
   1.455122906970000E-02   1.479996202280000E-02   1.505294671850000E-02
   1.531025583460000E-02   1.557196329090000E-02   1.583814427090000E-02
   1.610887524330000E-02   1.638423398380000E-02   1.666429959770000E-02
   1.694915254240000E-02   1.723887465060000E-02   1.753354915400000E-02
   1.783326070670000E-02   1.813809541010000E-02   1.844814083740000E-02
   1.876348605850000E-02   1.908422166610000E-02   1.941043980130000E-02
   1.974223418020000E-02   2.007970012100000E-02   2.042293457110000E-02
   2.077203613510000E-02   2.112710510310000E-02   2.148824347950000E-02
   2.185555501250000E-02   2.222914522350000E-02   2.260912143780000E-02
   2.299559281520000E-02   2.338867038140000E-02   2.378846706010000E-02
   2.419509770500000E-02   2.460867913320000E-02   2.502933015880000E-02
   2.545717162660000E-02   2.589232644720000E-02   2.633491963210000E-02
   2.678507832980000E-02   2.724293186230000E-02   2.770861176180000E-02
   2.818225180940000E-02   2.866398807250000E-02   2.915395894480000E-02
   2.965230518530000E-02   3.015916995930000E-02   3.067469887920000E-02
   3.119904004650000E-02   3.173234409430000E-02   3.227476423050000E-02
   3.282645628190000E-02   3.338757873900000E-02   3.395829280140000E-02
   3.453876242420000E-02   3.512915436510000E-02   3.572963823220000E-02
   3.634038653300000E-02   3.696157472370000E-02   3.759338125950000E-02
   3.823598764630000E-02   3.888957849240000E-02   3.955434156190000E-02
   4.023046782840000E-02   4.091815152970000E-02   4.161759022420000E-02
   4.232898484700000E-02   4.305253976800000E-02   4.378846285070000E-02
   4.453696551130000E-02   4.529826278040000E-02   4.607257336370000E-02
   4.686011970590000E-02   4.766112805360000E-02   4.847582852120000E-02
   4.930445515620000E-02   5.014724600710000E-02   5.100444319150000E-02
   5.187629296530000E-02   5.276304579430000E-02   5.366495642530000E-02
   5.458228395990000E-02   5.551529192840000E-02   5.646424836600000E-02
   5.742942588960000E-02   5.841110177590000E-02   5.940955804140000E-02
   6.042508152330000E-02   6.145796396190000E-02   6.250850208430000E-02
   6.357699768970000E-02   6.466375773630000E-02   6.576909442920000E-02
   6.689332531019999E-02   6.803677334909999E-02   6.919976703650001E-02
   7.038264047789999E-02   7.158573348989999E-02   7.280939169780000E-02
   7.405396663510000E-02   7.531981584410000E-02   7.660730297850001E-02
   7.791679790880000E-02   7.924867682730000E-02   8.060332235709999E-02
   8.198112366170000E-02   8.338247655680001E-02   8.480778362380000E-02
   8.625745432590000E-02   8.773190512560000E-02   8.923155960380000E-02
   9.075684858249999E-02   9.230821024749999E-02   9.388609027510000E-02
   9.549094195970000E-02   9.712322634400000E-02   9.878341235190000E-02
   1.004719769230000E-01   1.021894051480000E-01   1.039361904120000E-01
   1.057128345320000E-01   1.075198479040000E-01   1.093577496480000E-01
   1.112270677570000E-01   1.131283392510000E-01   1.150621103270000E-01
   1.170289365200000E-01   1.190293828630000E-01   1.210640240440000E-01
   1.231334445770000E-01   1.252382389650000E-01   1.273790118760000E-01
   1.295563783120000E-01   1.317709637890000E-01   1.340234045130000E-01
   1.363143475680000E-01   1.386444510980000E-01   1.410143844950000E-01
   1.434248285970000E-01   1.458764758760000E-01   1.483700306440000E-01
   1.509062092510000E-01   1.534857402910000E-01   1.561093648140000E-01
   1.587778365380000E-01   1.614919220610000E-01   1.642524010880000E-01
   1.670600666520000E-01   1.699157253400000E-01   1.728201975280000E-01
   1.757743176140000E-01   1.787789342610000E-01   1.818349106360000E-01
   1.849431246620000E-01   1.881044692690000E-01   1.913198526500000E-01
   1.945901985220000E-01   1.979164463930000E-01   2.012995518300000E-01
   2.047404867320000E-01   2.082402396140000E-01   2.117998158870000E-01
   2.154202381490000E-01   2.191025464770000E-01   2.228477987260000E-01
   2.266570708360000E-01   2.305314571360000E-01   2.344720706630000E-01
   2.384800434790000E-01   2.425565269960000E-01   2.467026923100000E-01
   2.509197305330000E-01   2.552088531400000E-01   2.595712923110000E-01
   2.640083012920000E-01   2.685211547490000E-01   2.731111491380000E-01
   2.777796030750000E-01   2.825278577160000E-01   2.873572771440000E-01
   2.922692487570000E-01   2.972651836700000E-01   3.023465171180000E-01
   3.075147088690000E-01   3.127712436450000E-01   3.181176315480000E-01
   3.235554084900000E-01   3.290861366390000E-01   3.347114048680000E-01
   3.404328292070000E-01   3.462520533090000E-01   3.521707489260000E-01
   3.581906163850000E-01   3.643133850760000E-01   3.705408139540000E-01
   3.768746920360000E-01   3.833168389250000E-01   3.898691053250000E-01
   3.965333735740000E-01   4.033115581870000E-01   4.102056064080000E-01
   4.172174987610000E-01   4.243492496270000E-01   4.316029078220000E-01
   4.389805571810000E-01   4.464843171580000E-01   4.541163434410000E-01
   4.618788285610000E-01   4.697740025310000E-01   4.778041334810000E-01
   4.859715283130000E-01   4.942785333610000E-01   5.027275350670000E-01
   5.113209606660000E-01   5.200612788820000E-01   5.289510006400000E-01
   5.379926797840000E-01   5.471889138150000E-01   5.565423446330000E-01
   5.660556592960000E-01   5.757315907970000E-01   5.855729188430000E-01