<UPF version="2.0.1">
  <PP_INFO>
    Generated by new atomic code, or converted to UPF format
    Author: 
    Generation date: 
    Pseudopotential type: US
    Element: Hf
    Functional: SLA  PZ   NOGX NOGC
    Suggested minimum cutoff for wavefunctions:   0. Ry
    Suggested minimum cutoff for charge density:   0. Ry
    The Pseudo was generated with a Non-Relativistic Calculation
    L component and cutoff radius for Local Potential:  0   0.0000
    Valence configuration: 
    nl pn  l   occ       Rcut    Rcut US       E pseu
    5S  1  0  2.00      0.000      0.000     0.000000
    5P  2  1  6.00      0.000      0.000     0.000000
    6S  1  0  0.00      0.000      0.000     0.000000
    6P  2  1  0.00      0.000      0.000     0.000000
    5D  3  2  2.00      0.000      0.000     0.000000
    Generation configuration: not available.
  </PP_INFO>
    <!-- END OF HUMAN READABLE SECTION -->
  <PP_HEADER generated="Generated by new atomic code, or converted to UPF format" author="" date="" comment="" element="Hf" pseudo_type="US" relativistic="no" is_ultrasoft="true" is_paw="false" is_coulomb="false" has_so="false" has_wfc="false" has_gipaw="false" paw_as_gipaw="false" core_correction="true" functional="SLA  PZ   NOGX NOGC" z_valence="12.000000000000000" total_psenergy="-156.31274559799999" wfc_cutoff="0.0000000000000000" rho_cutoff="0.0000000000000000" l_max="3" l_max_rho="0" l_local="0" mesh_size="921" number_of_wfc="5" number_of_proj="8"/>
  <PP_MESH>
    <PP_R>
   0.000000000000000E+00   5.884834594440000E-07   1.187026222330000E-06
   1.795800238420000E-06   2.414980396690000E-06   3.044744575640000E-06
   3.685273694320000E-06   4.336751764350000E-06   4.999365942770000E-06
   5.673306585820000E-06   6.358767303610000E-06   7.055945015730000E-06
   7.765040007840000E-06   8.486255989220000E-06   9.219800151270001E-06
   9.965883227019999E-06   1.072471955170000E-05   1.149652712430000E-05
   1.228152767030000E-05   1.307994670500000E-05   1.389201359880000E-05
   1.471796164280000E-05   1.555802811590000E-05   1.641245435300000E-05
   1.728148581420000E-05   1.816537215540000E-05   1.906436730000000E-05
   1.997872951190000E-05   2.090872146980000E-05   2.185461034220000E-05
   2.281666786490000E-05   2.379517041820000E-05   2.479039910710000E-05
   2.580263984150000E-05   2.683218341850000E-05   2.787932560610000E-05
   2.894436722800000E-05   3.002761425010000E-05   3.112937786820000E-05
   3.224997459770000E-05   3.338972636440000E-05   3.454896059690000E-05
   3.572801032070000E-05   3.692721425410000E-05   3.814691690510000E-05
   3.938746867070000E-05   4.064922593740000E-05   4.193255118360000E-05
   4.323781308390000E-05   4.456538661470000E-05   4.591565316230000E-05
   4.728900063210000E-05   4.868582356010000E-05   5.010652322670000E-05
   5.155150777140000E-05   5.302119231020000E-05   5.451599905510000E-05
   5.603635743510000E-05   5.758270421980000E-05   5.915548364470000E-05
   6.075514753890000E-05   6.238215545480001E-05   6.403697480030000E-05
   6.572008097310000E-05   6.743195749699999E-05   6.917309616090000E-05
   7.094399716030000E-05   7.274516924080000E-05   7.457712984420000E-05
   7.644040525750000E-05   7.833553076360000E-05   8.026305079530000E-05
   8.222351909190000E-05   8.421749885790000E-05   8.624556292530000E-05
   8.830829391740000E-05   9.040628441720000E-05   9.254013713650000E-05
   9.471046509000001E-05   9.691789177090000E-05   9.916305133029999E-05
   1.014465887590000E-04   1.037691600730000E-04   1.061314325020000E-04
   1.085340846820000E-04   1.109778068470000E-04   1.134633010330000E-04
   1.159912812720000E-04   1.185624738060000E-04   1.211776172880000E-04
   1.238374629980000E-04   1.265427750580000E-04   1.292943306520000E-04
   1.320929202490000E-04   1.349393478300000E-04   1.378344311170000E-04
   1.407790018130000E-04   1.437739058350000E-04   1.468200035620000E-04
   1.499181700780000E-04   1.530692954270000E-04   1.562742848670000E-04
   1.595340591270000E-04   1.628495546800000E-04   1.662217240010000E-04
   1.696515358510000E-04   1.731399755480000E-04   1.766880452530000E-04
   1.802967642580000E-04   1.839671692780000E-04   1.877003147490000E-04
   1.914972731320000E-04   1.953591352190000E-04   1.992870104490000E-04
   2.032820272250000E-04   2.073453332370000E-04   2.114780957940000E-04
   2.156815021590000E-04   2.199567598900000E-04   2.243050971850000E-04
   2.287277632380000E-04   2.332260285940000E-04   2.378011855190000E-04
   2.424545483660000E-04   2.471874539570000E-04   2.520012619640000E-04
   2.568973553000000E-04   2.618771405190000E-04   2.669420482160000E-04
   2.720935334420000E-04   2.773330761180000E-04   2.826621814640000E-04
   2.880823804280000E-04   2.935952301300000E-04   2.992023143030000E-04
   3.049052437540000E-04   3.107056568260000E-04   3.166052198640000E-04
   3.226056276980000E-04   3.287086041300000E-04   3.349159024270000E-04
   3.412293058250000E-04   3.476506280440000E-04   3.541817138040000E-04
   3.608244393600000E-04   3.675807130390000E-04   3.744524757870000E-04
   3.814417017290000E-04   3.885503987340000E-04   3.957806089940000E-04
   4.031344096070000E-04   4.106139131790000E-04   4.182212684260000E-04
   4.259586607940000E-04   4.338283130860000E-04   4.418324861010000E-04
   4.499734792830000E-04   4.582536313810000E-04   4.666753211240000E-04
   4.752409679000000E-04   4.839530324530000E-04   4.928140175910000E-04
   5.018264689030000E-04   5.109929754930000E-04   5.203161707190000E-04
   5.297987329570001E-04   5.394433863620000E-04   5.492529016570000E-04
   5.592300969250000E-04   5.693778384220000E-04   5.796990413980000E-04
   5.901966709350000E-04   6.008737427970000E-04   6.117333243020000E-04
   6.227785351970000E-04   6.340125485580000E-04   6.454385916980000E-04
   6.570599471000000E-04   6.688799533530000E-04   6.809020061170000E-04
   6.931295590950000E-04   7.055661250270000E-04   7.182152766960000E-04
   7.310806479590000E-04   7.441659347890000E-04   7.574748963359999E-04
   7.710113560060000E-04   7.847792025630000E-04   7.987823912410000E-04
   8.130249448870000E-04   8.275109551110000E-04   8.422445834630001E-04
   8.572300626280000E-04   8.724716976469999E-04   8.879738671440000E-04
   9.037410245940000E-04   9.197776995960000E-04   9.360884991750000E-04
   9.526781091100000E-04   9.695512952750000E-04   9.867129050080000E-04
   1.004167868510000E-03   1.021921200250000E-03   1.039978000420000E-03
   1.058343456390000E-03   1.077022844200000E-03   1.096021530070000E-03
   1.115344971960000E-03   1.134998721130000E-03   1.154988423710000E-03
   1.175319822350000E-03   1.195998757880000E-03   1.217031170960000E-03
   1.238423103780000E-03   1.260180701840000E-03   1.282310215670000E-03
   1.304818002650000E-03   1.327710528850000E-03   1.350994370830000E-03
   1.374676217590000E-03   1.398762872470000E-03   1.423261255100000E-03
   1.448178403400000E-03   1.473521475560000E-03   1.499297752180000E-03
   1.525514638270000E-03   1.552179665450000E-03   1.579300494040000E-03
   1.606884915360000E-03   1.634940853850000E-03   1.663476369460000E-03
   1.692499659890000E-03   1.722019062960000E-03   1.752043059030000E-03
   1.782580273400000E-03   1.813639478840000E-03   1.845229598050000E-03
   1.877359706270000E-03   1.910039033830000E-03   1.943276968900000E-03
   1.977083060080000E-03   2.011467019210000E-03   2.046438724130000E-03
   2.082008221540000E-03   2.118185729870000E-03   2.154981642210000E-03
   2.192406529320000E-03   2.230471142650000E-03   2.269186417420000E-03
   2.308563475770000E-03   2.348613629990000E-03   2.389348385700000E-03
   2.430779445200000E-03   2.472918710850000E-03   2.515778288430000E-03
   2.559370490680000E-03   2.603707840780000E-03   2.648803076010000E-03
   2.694669151350000E-03   2.741319243230000E-03   2.788766753330000E-03
   2.837025312400000E-03   2.886108784180000E-03   2.936031269420000E-03
   2.986807109860000E-03   3.038450892440000E-03   3.090977453400000E-03
   3.144401882610000E-03   3.198739527890000E-03   3.254005999370000E-03
   3.310217174050000E-03   3.367389200320000E-03   3.425538502590000E-03
   3.484681786020000E-03   3.544836041340000E-03   3.606018549710000E-03
   3.668246887660000E-03   3.731538932210000E-03   3.795912865930000E-03
   3.861387182210000E-03   3.927980690540000E-03   3.995712521960000E-03
   4.064602134520000E-03   4.134669318850000E-03   4.205934203920000E-03
   4.278417262730000E-03   4.352139318280000E-03   4.427121549480000E-03
   4.503385497280000E-03   4.580953070830000E-03   4.659846553790000E-03
   4.740088610740000E-03   4.821702293670000E-03   4.904711048610000E-03
   4.989138722360000E-03   5.075009569370000E-03   5.162348258670000E-03
   5.251179880970000E-03   5.341529955870000E-03   5.433424439220000E-03
   5.526889730500000E-03   5.621952680500000E-03   5.718640598960000E-03
   5.816981262450000E-03   5.917002922330000E-03   6.018734312900000E-03
   6.122204659610000E-03   6.227443687490000E-03   6.334481629690000E-03
   6.443349236120000E-03   6.554077782340000E-03   6.666699078530000E-03
   6.781245478600000E-03   6.897749889520000E-03   7.016245780750000E-03
   7.136767193860000E-03   7.259348752330000E-03   7.384025671460000E-03
   7.510833768530000E-03   7.639809473040000E-03   7.770989837220000E-03
   7.904412546650001E-03   8.040115931090001E-03   8.178138975500000E-03
   8.318521331220000E-03   8.461303327390000E-03   8.606525982530000E-03
   8.754231016270000E-03   8.904460861430000E-03   9.057258676130000E-03
   9.212668356230001E-03   9.370734547910001E-03   9.531502660540000E-03
   9.695018879689999E-03   9.861330180400000E-03   1.003048434070000E-02
   1.020252995530000E-02   1.037751644950000E-02   1.055549409370000E-02
   1.073651401730000E-02   1.092062822380000E-02   1.110788960580000E-02
   1.129835195980000E-02   1.149207000180000E-02   1.168909938350000E-02
   1.188949670740000E-02   1.209331954400000E-02   1.230062644740000E-02
   1.251147697310000E-02   1.272593169420000E-02   1.294405221950000E-02
   1.316590121080000E-02   1.339154240090000E-02   1.362104061230000E-02
   1.385446177530000E-02   1.409187294740000E-02   1.433334233200000E-02
   1.457893929890000E-02   1.482873440310000E-02   1.508279940600000E-02
   1.534120729550000E-02   1.560403230730000E-02   1.587134994580000E-02
   1.614323700640000E-02   1.641977159670000E-02   1.670103316000000E-02
   1.698710249710000E-02   1.727806179030000E-02   1.757399462660000E-02
   1.787498602170000E-02   1.818112244460000E-02   1.849249184240000E-02
   1.880918366560000E-02   1.913128889350000E-02   1.945890006070000E-02
   1.979211128350000E-02   2.013101828730000E-02   2.047571843320000E-02
   2.082631074710000E-02   2.118289594730000E-02   2.154557647380000E-02
   2.191445651780000E-02   2.228964205130000E-02   2.267124085790000E-02
   2.305936256360000E-02   2.345411866810000E-02   2.385562257730000E-02
   2.426398963550000E-02   2.467933715860000E-02   2.510178446800000E-02
   2.553145292450000E-02   2.596846596370000E-02   2.641294913090000E-02
   2.686503011750000E-02   2.732483879760000E-02   2.779250726540000E-02
   2.826816987290000E-02   2.875196326890000E-02   2.924402643780000E-02
   2.974450073990000E-02   3.025352995170000E-02   3.077126030740000E-02
   3.129784054100000E-02   3.183342192880000E-02   3.237815833300000E-02
   3.293220624580000E-02   3.349572483440000E-02   3.406887598680000E-02
   3.465182435830000E-02   3.524473741860000E-02   3.584778550020000E-02
   3.646114184710000E-02   3.708498266480000E-02   3.771948717060000E-02
   3.836483764540000E-02   3.902121948590000E-02   3.968882125790000E-02
   4.036783475060000E-02   4.105845503120000E-02   4.176088050170000E-02
   4.247531295520000E-02   4.320195763450000E-02   4.394102329050000E-02
   4.469272224250000E-02   4.545727043890000E-02   4.623488751970000E-02
   4.702579687930000E-02   4.783022573060000E-02   4.864840517040000E-02
   4.948057024580000E-02   5.032696002190000E-02   5.118781764990000E-02
   5.206339043770000E-02   5.295392992030000E-02   5.385969193260000E-02
   5.478093668230000E-02   5.571792882530000E-02   5.667093754130000E-02
   5.764023661130000E-02   5.862610449620000E-02   5.962882441660000E-02
   6.064868443470000E-02   6.168597753640000E-02   6.274100171610000E-02
   6.381406006170000E-02   6.490546084210000E-02   6.601551759570000E-02
   6.714454922030000E-02   6.829288006490000E-02   6.946084002260000E-02
   7.064876462569999E-02   7.185699514210001E-02   7.308587867290001E-02
   7.433576825270000E-02   7.560702295040000E-02   7.690000797300001E-02
   7.821509477010000E-02   7.955266114060000E-02   8.091309134140000E-02
   8.229677619799999E-02   8.370411321600001E-02   8.513550669630000E-02
   8.659136785050001E-02   8.807211491930000E-02   8.957817329260000E-02
   9.110997563200000E-02   9.266796199460001E-02   9.425257995970000E-02
   9.586428475740000E-02   9.750353939930000E-02   9.917081481150000E-02
   1.008665899700000E-01   1.025913520380000E-01   1.043455965070000E-01
   1.061298273370000E-01   1.079445571020000E-01   1.097903071400000E-01
   1.116676077000000E-01   1.135769980920000E-01   1.155190268480000E-01
   1.174942518750000E-01   1.195032406180000E-01   1.215465702200000E-01
   1.236248276890000E-01   1.257386100690000E-01   1.278885246090000E-01
   1.300751889380000E-01   1.322992312420000E-01   1.345612904450000E-01
   1.368620163930000E-01   1.392020700400000E-01   1.415821236380000E-01
   1.440028609320000E-01   1.464649773500000E-01   1.489691802130000E-01
   1.515161889290000E-01   1.541067352040000E-01   1.567415632520000E-01
   1.594214300090000E-01   1.621471053480000E-01   1.649193723020000E-01
   1.677390272920000E-01   1.706068803480000E-01   1.735237553500000E-01
   1.764904902590000E-01   1.795079373600000E-01   1.825769635090000E-01
   1.856984503770000E-01   1.888732947070000E-01   1.921024085690000E-01
   1.953867196260000E-01   1.987271713970000E-01   2.021247235290000E-01
   2.055803520740000E-01   2.090950497650000E-01   2.126698263080000E-01
   2.163057086680000E-01   2.200037413620000E-01   2.237649867630000E-01
   2.275905254060000E-01   2.314814562930000E-01   2.354388972130000E-01
   2.394639850630000E-01   2.435578761720000E-01   2.477217466360000E-01
   2.519567926540000E-01   2.562642308730000E-01   2.606452987380000E-01
   2.651012548430000E-01   2.696333792990000E-01   2.742429740980000E-01
   2.789313634860000E-01   2.836998943480000E-01   2.885499365900000E-01
   2.934828835350000E-01   2.985001523240000E-01   3.036031843210000E-01
   3.087934455270000E-01   3.140724270060000E-01   3.194416453050000E-01
   3.249026428980000E-01   3.304569886230000E-01   3.361062781370000E-01
   3.418521343710000E-01   3.476962079980000E-01   3.536401779070000E-01
   3.596857516870000E-01   3.658346661130000E-01   3.720886876500000E-01
   3.784496129570000E-01   3.849192694050000E-01   3.914995156000000E-01
   3.981922419210000E-01   4.049993710570000E-01   4.119228585660000E-01
   4.189646934320000E-01   4.261268986370000E-01   4.334115317440000E-01
   4.408206854880000E-01   4.483564883740000E-01   4.560211052940000E-01
   4.638167381430000E-01   4.717456264560000E-01   4.798100480490000E-01
   4.880123196750000E-01   4.963547976860000E-01   5.048398787170000E-01
   5.134700003660000E-01   5.222476418999999E-01   5.311753249650000E-01
   5.402556143140000E-01   5.494911185360000E-01   5.588844908130000E-01
   5.684384296810000E-01   5.781556797990000E-01   5.880390327470000E-01
   5.980913278200000E-01   6.083154528480000E-01   6.187143450250000E-01
   6.292909917500000E-01   6.400484314900000E-01   6.509897546500000E-01
   6.621181044590000E-01   6.734366778770000E-01   6.849487265120000E-01
   6.966575575510000E-01   7.085665347160000E-01   7.206790792250000E-01
   7.329986707790000E-01   7.455288485560000E-01   7.582732122360000E-01
   7.712354230260000E-01   7.844192047190000E-01   7.978283447610000E-01
   8.114666953390000E-01   8.253381744850000E-01   8.394467672080000E-01
   8.537965266340000E-01   8.683915751700000E-01   8.832361056920000E-01
   8.983343827460000E-01   9.136907437750000E-01   9.293096003640000E-01
   9.451954395080000E-01   9.613528249030000E-01   9.777863982510000E-01
   9.945008806000000E-01   1.011501073700000E+00   1.028791861370000E+00
   1.046378210930000E+00   1.064265174590000E+00   1.082457890930000E+00
   1.100961586370000E+00   1.119781576650000E+00   1.138923268410000E+00
   1.158392160670000E+00   1.178193846470000E+00   1.198334014450000E+00
   1.218818450500000E+00   1.239653039400000E+00   1.260843766510000E+00
   1.282396719530000E+00   1.304318090210000E+00   1.326614176120000E+00
   1.349291382500000E+00   1.372356224080000E+00   1.395815326940000E+00
   1.419675430420000E+00   1.443943389060000E+00   1.468626174600000E+00
   1.493730877900000E+00   1.519264711070000E+00   1.545235009480000E+00
   1.571649233900000E+00   1.598514972620000E+00   1.625839943650000E+00
   1.653631996930000E+00   1.681899116570000E+00   1.710649423170000E+00
   1.739891176140000E+00   1.769632776060000E+00   1.799882767130000E+00
   1.830649839570000E+00   1.861942832190000E+00   1.893770734830000E+00
   1.926142691060000E+00   1.959068000690000E+00   1.992556122550000E+00
   2.026616677110000E+00   2.061259449310000E+00   2.096494391360000E+00
   2.132331625570000E+00   2.168781447280000E+00   2.205854327820000E+00
   2.243560917520000E+00   2.281912048740000E+00   2.320918739030000E+00
   2.360592194250000E+00   2.400943811820000E+00   2.441985183980000E+00
   2.483728101120000E+00   2.526184555160000E+00   2.569366743040000E+00
   2.613287070150000E+00   2.657958153960000E+00   2.703392827610000E+00
   2.749604143590000E+00   2.796605377520000E+00   2.844410031950000E+00
   2.893031840230000E+00   2.942484770470000E+00   2.992783029530000E+00
   3.043941067140000E+00   3.095973580000000E+00   3.148895516050000E+00
   3.202722078740000E+00   3.257468731400000E+00   3.313151201680000E+00
   3.369785486070000E+00   3.427387854520000E+00   3.485974855070000E+00
   3.545563318630000E+00   3.606170363810000E+00   3.667813401840000E+00
   3.730510141580000E+00   3.794278594580000E+00   3.859137080290000E+00
   3.925104231300000E+00   3.992198998690000E+00   4.060440657490000E+00
   4.129848812200000E+00   4.200443402460000E+00   4.272244708710000E+00
   4.345273358090000E+00   4.419550330300000E+00   4.495096963700000E+00
   4.571934961360000E+00   4.650086397350000E+00   4.729573723080000E+00
   4.810419773700000E+00   4.892647774730000E+00   4.976281348670000E+00
   5.061344521850000E+00   5.147861731250000E+00   5.235857831600000E+00
   5.325358102480000E+00   5.416388255590000E+00   5.508974442110000E+00
   5.603143260290000E+00   5.698921762980000E+00   5.796337465510000E+00
   5.895418353520000E+00   5.996192891030000E+00   6.098690028620000E+00
   6.202939211730000E+00   6.308970389130000E+00   6.416814021530000E+00
   6.526501090320000E+00   6.638063106470000E+00   6.751532119580000E+00
   6.866940727120000E+00   6.984322083740000E+00   7.103709910830000E+00
   7.225138506210000E+00   7.348642753950000E+00   7.474258134450000E+00
   7.602020734560000E+00   7.731967258020000E+00   7.864135035940000E+00
   7.998562037570000E+00   8.135286881190000E+00   8.274348845190000E+00
   8.415787879380000E+00   8.559644616480000E+00   8.705960383720001E+00
   8.854777214809999E+00   9.006137861939999E+00   9.160085808080000E+00
   9.316665279510000E+00   9.475921258490001E+00   9.637899496159999E+00
   9.802646525749999E+00   9.970209675880000E+00   1.014063708420000E+01
   1.031397771120000E+01   1.049028135440000E+01   1.066959866220000E+01
   1.085198114920000E+01   1.103748121030000E+01   1.122615213600000E+01
   1.141804812790000E+01   1.161322431390000E+01   1.181173676450000E+01
   1.201364250830000E+01   1.221899954910000E+01   1.242786688180000E+01
   1.264030451020000E+01   1.285637346330000E+01   1.307613581360000E+01
   1.329965469460000E+01   1.352699431890000E+01   1.375821999680000E+01
   1.399339815500000E+01   1.423259635550000E+01   1.447588331550000E+01
   1.472332892650000E+01   1.497500427490000E+01   1.523098166220000E+01
   1.549133462560000E+01   1.575613795960000E+01   1.602546773700000E+01
   1.629940133110000E+01   1.657801743770000E+01   1.686139609780000E+01
   1.714961872050000E+01   1.744276810680000E+01   1.774092847270000E+01
   1.804418547400000E+01   1.835262623040000E+01   1.866633935110000E+01
   1.898541495980000E+01   1.930994472070000E+01   1.964002186500000E+01
   1.997574121740000E+01   2.031719922360000E+01   2.066449397780000E+01
   2.101772525120000E+01   2.137699452020000E+01   2.174240499600000E+01
   2.211406165390000E+01   2.249207126370000E+01   2.287654242020000E+01
   2.326758557450000E+01   2.366531306580000E+01   2.406983915360000E+01
   2.448128005020000E+01   2.489975395470000E+01   2.532538108660000E+01
   2.575828372030000E+01   2.619858622040000E+01   2.664641507720000E+01
   2.710189894340000E+01   2.756516867050000E+01   2.803635734710000E+01
   2.851560033650000E+01   2.900303531600000E+01   2.949880231610000E+01
   3.000304376130000E+01   3.051590451020000E+01   3.103753189790000E+01
   3.156807577780000E+01   3.210768856480000E+01   3.265652527940000E+01
   3.321474359170000E+01   3.378250386690000E+01   3.435996921170000E+01
   3.494730552060000E+01   3.554468152400000E+01   3.615226883650000E+01
   3.677024200620000E+01   3.739877856470000E+01   3.803805907850000E+01
   3.868826720050000E+01   3.934958972290000E+01   4.002221663090000E+01
   4.070634115710000E+01   4.140215983740000E+01   4.210987256680000E+01
   4.282968265770000E+01   4.356179689760000E+01   4.430642560860000E+01
   4.506378270820000E+01   4.583408577050000E+01   4.661755608850000E+01
   4.741441873820000E+01   4.822490264280000E+01   4.904924063870000E+01
   4.988766954210000E+01   5.074043021750000E+01   5.160776764650000E+01
   5.248993099840000E+01   5.338717370170000E+01   5.429975351670000E+01
   5.522793261010000E+01   5.617197762970000E+01   5.713215978140000E+01
   5.810875490690000E+01   5.910204356320000E+01   6.011231110270000E+01
   6.113984775600000E+01   6.218494871420000E+01   6.324791421480000E+01
   6.432904962720001E+01   6.542866554050001E+01   6.654707785330000E+01
   6.768460786369999E+01   6.884158236200000E+01   7.001833372480000E+01
   7.121520000970000E+01   7.243252505350000E+01   7.367065856990000E+01
   7.492995625090001E+01   7.621077986820001E+01   7.751349737779999E+01
   7.883848302500000E+01   8.018611745280000E+01   8.155678781029999E+01
   8.295088786460001E+01   8.436881811380000E+01   8.581098590160001E+01
   8.727780553510000E+01   8.876969840320000E+01   9.028709309760001E+01
   9.183042553670001E+01   9.340013909000000E+01   9.499668470570001E+01
   9.662052104060000E+01   9.827211459130000E+01   9.995193982890000E+01
   1.016604793340000E+02   1.033982239380000E+02   1.051656728610000E+02
   1.069633338570000E+02   1.087917233580000E+02   1.106513666260000E+02
   1.125427979000000E+02   1.144665605530000E+02   1.164232072430000E+02
   1.184133000770000E+02   1.204374107710000E+02   1.224961208130000E+02
   1.245900216290000E+02   1.267197147580000E+02   1.288858120190000E+02
   1.310889356890000E+02   1.333297186830000E+02   1.356088047360000E+02
   1.379268485840000E+02   1.402845161560000E+02   1.426824847660000E+02
   1.451214433010000E+02   1.476020924300000E+02   1.501251447930000E+02
   1.526913252150000E+02   1.553013709100000E+02   1.579560316930000E+02
   1.606560701980000E+02   1.634022620930000E+02   1.661953963050000E+02
   1.690362752490000E+02   1.719257150540000E+02   1.748645457990000E+02
   1.778536117550000E+02   1.808937716210000E+02   1.839858987780000E+02
   1.871308815330000E+02   1.903296233780000E+02   1.935830432520000E+02
   1.968920757980000E+02   2.002576716370000E+02   2.036807976400000E+02
    </PP_R>
    <PP_RAB>
   5.835103994040000E-07   5.934846953260000E-07   6.036294879180000E-07
   6.139476915800000E-07   6.244422705340000E-07   6.351162396690000E-07
   6.459726654090000E-07   6.570146665960000E-07   6.682454153830000E-07
   6.796681381460000E-07   6.912861164140000E-07   7.031026878060000E-07
   7.151212469940000E-07   7.273452466790000E-07   7.397781985780000E-07
   7.524236744380000E-07   7.652853070600000E-07   7.783667913410000E-07
   7.916718853400000E-07   8.052044113520000E-07   8.189682570100000E-07
   8.329673764000000E-07   8.472057911990000E-07   8.616875918280000E-07
   8.764169386270000E-07   8.913980630540000E-07   9.066352688940000E-07
   9.221329335040000E-07   9.378955090610000E-07   9.539275238479999E-07
   9.702335835540000E-07   9.868183725940000E-07   1.003686655460000E-06
   1.020843278070000E-06   1.038293169210000E-06   1.056041341880000E-06
   1.074092894790000E-06   1.092453013810000E-06   1.111126973440000E-06
   1.130120138350000E-06   1.149437964900000E-06   1.169086002740000E-06
   1.189069896370000E-06   1.209395386760000E-06   1.230068313050000E-06
   1.251094614160000E-06   1.272480330550000E-06   1.294231605910000E-06
   1.316354688960000E-06   1.338855935250000E-06   1.361741808930000E-06
   1.385018884690000E-06   1.408693849580000E-06   1.432773504940000E-06
   1.457264768410000E-06   1.482174675850000E-06   1.507510383390000E-06
   1.533279169490000E-06   1.559488437030000E-06   1.586145715420000E-06
   1.613258662770000E-06   1.640835068130000E-06   1.668882853650000E-06
   1.697410076910000E-06   1.726424933250000E-06   1.755935758060000E-06
   1.785951029240000E-06   1.816479369590000E-06   1.847529549310000E-06
   1.879110488510000E-06   1.911231259800000E-06   1.943901090850000E-06
   1.977129367060000E-06   2.010925634280000E-06   2.045299601530000E-06
   2.080261143770000E-06   2.115820304780000E-06   2.151987300020000E-06
   2.188772519570000E-06   2.226186531110000E-06   2.264240082970000E-06
   2.302944107180000E-06   2.342309722670000E-06   2.382348238420000E-06
   2.423071156720000E-06   2.464490176480000E-06   2.506617196570000E-06
   2.549464319270000E-06   2.593043853740000E-06   2.637368319540000E-06
   2.682450450210000E-06   2.728303196990000E-06   2.774939732490000E-06
   2.822373454470000E-06   2.870617989730000E-06   2.919687198000000E-06
   2.969595175890000E-06   3.020356261010000E-06   3.071985036050000E-06
   3.124496332930000E-06   3.177905237160000E-06   3.232227092060000E-06
   3.287477503260000E-06   3.343672343130000E-06   3.400827755360000E-06
   3.458960159590000E-06   3.518086256150000E-06   3.578223030810000E-06
   3.639387759710000E-06   3.701598014280000E-06   3.764871666330000E-06
   3.829226893160000E-06   3.894682182780000E-06   3.961256339220000E-06
   4.028968487960000E-06   4.097838081380000E-06   4.167884904380000E-06
   4.239129080060000E-06   4.311591075500000E-06   4.385291707620000E-06
   4.460252149190000E-06   4.536493934890000E-06   4.614038967520000E-06
   4.692909524250000E-06   4.773128263080000E-06   4.854718229300000E-06
   4.937702862120000E-06   5.022106001420000E-06   5.107951894590000E-06
   5.195265203510000E-06   5.284071011580000E-06   5.374394831000000E-06
   5.466262610060000E-06   5.559700740580000E-06   5.654736065550000E-06
   5.751395886770000E-06   5.849707972720000E-06   5.949700566590000E-06
   6.051402394290000E-06   6.154842672800000E-06   6.260051118510000E-06
   6.367057955770000E-06   6.475893925570000E-06   6.586590294380000E-06
   6.699178863130000E-06   6.813691976330000E-06   6.930162531380000E-06
   7.048623988030000E-06   7.169110377950000E-06   7.291656314550000E-06
   7.416297002920000E-06   7.543068249900000E-06   7.672006474420000E-06
   7.803148717939999E-06   7.936532655100000E-06   8.072196604500001E-06
   8.210179539790000E-06   8.350521100780000E-06   8.493261604899999E-06
   8.638442058730000E-06   8.786104169790000E-06   8.936290358569999E-06
   9.089043770639999E-06   9.244408289110000E-06   9.402428547190001E-06
   9.563149941050000E-06   9.726618642830001E-06   9.892881613920000E-06
   1.006198661850000E-05   1.023398223710000E-05   1.040891788070000E-05
   1.058684380510000E-05   1.076781112480000E-05   1.095187182830000E-05
   1.113907879260000E-05   1.132948579870000E-05   1.152314754680000E-05
   1.172011967230000E-05   1.192045876130000E-05   1.212422236750000E-05
   1.233146902810000E-05   1.254225828120000E-05   1.275665068240000E-05
   1.297470782240000E-05   1.319649234500000E-05   1.342206796440000E-05
   1.365149948430000E-05   1.388485281570000E-05   1.412219499670000E-05
   1.436359421110000E-05   1.460911980810000E-05   1.485884232250000E-05
   1.511283349480000E-05   1.537116629170000E-05   1.563391492730000E-05
   1.590115488400000E-05   1.617296293490000E-05   1.644941716510000E-05
   1.673059699450000E-05   1.701658320070000E-05   1.730745794190000E-05
   1.760330478090000E-05   1.790420870870000E-05   1.821025616920000E-05
   1.852153508400000E-05   1.883813487730000E-05   1.916014650230000E-05
   1.948766246660000E-05   1.982077685920000E-05   2.015958537750000E-05
   2.050418535450000E-05   2.085467578720000E-05   2.121115736470000E-05
   2.157373249730000E-05   2.194250534580000E-05   2.231758185140000E-05
   2.269906976640000E-05   2.308707868500000E-05   2.348172007440000E-05
   2.388310730770000E-05   2.429135569550000E-05   2.470658251980000E-05
   2.512890706710000E-05   2.555845066320000E-05   2.599533670760000E-05
   2.643969070910000E-05   2.689164032220000E-05   2.735131538320000E-05
   2.781884794780000E-05   2.829437232910000E-05   2.877802513610000E-05
   2.926994531280000E-05   2.977027417840000E-05   3.027915546760000E-05
   3.079673537240000E-05   3.132316258320000E-05   3.185858833250000E-05
   3.240316643780000E-05   3.295705334580000E-05   3.352040817740000E-05
   3.409339277360000E-05   3.467617174190000E-05   3.526891250330000E-05
   3.587178534080000E-05   3.648496344800000E-05   3.710862297930000E-05
   3.774294309980000E-05   3.838810603750000E-05   3.904429713530000E-05