<UPF version="2.0.1">
  <PP_INFO>
    Generated by new atomic code, or converted to UPF format
    Author: 
    Generation date: 
    Pseudopotential type: US
    Element: Hg
    Functional: SLA  PZ   NOGX NOGC
    Suggested minimum cutoff for wavefunctions:   0. Ry
    Suggested minimum cutoff for charge density:   0. Ry
    The Pseudo was generated with a Non-Relativistic Calculation
    L component and cutoff radius for Local Potential:  0   0.0000
    Valence configuration: 
    nl pn  l   occ       Rcut    Rcut US       E pseu
    5D  3  2 10.00      0.000      0.000     0.000000
    6S  1  0  2.00      0.000      0.000     0.000000
    6P  2  1  0.00      0.000      0.000     0.000000
    Generation configuration: not available.
  </PP_INFO>
    <!-- END OF HUMAN READABLE SECTION -->
  <PP_HEADER generated="Generated by new atomic code, or converted to UPF format" author="" date="" comment="" element="Hg" pseudo_type="US" relativistic="no" is_ultrasoft="true" is_paw="false" is_coulomb="false" has_so="false" has_wfc="false" has_gipaw="false" paw_as_gipaw="false" core_correction="true" functional="SLA  PZ   NOGX NOGC" z_valence="12.000000000000000" total_psenergy="-107.44368269899999" wfc_cutoff="0.0000000000000000" rho_cutoff="0.0000000000000000" l_max="2" l_max_rho="0" l_local="0" mesh_size="985" number_of_wfc="3" number_of_proj="6"/>
  <PP_MESH>
    <PP_R>
   0.000000000000000E+00   1.915673698300000E-07   3.863542841680000E-07
   5.844148517440000E-07   7.858040906550000E-07   9.905779436509999E-07
   1.198793293670000E-06   1.410507979660000E-06   1.625780812610000E-06
   1.844671591910000E-06   2.067241121970000E-06   2.293551229080000E-06
   2.523664778630000E-06   2.757645692510000E-06   2.995558966940000E-06
   3.237470690460000E-06   3.483448062330000E-06   3.733559411180000E-06
   3.987874213990000E-06   4.246463115400000E-06   4.509397947320000E-06
   4.776751748890000E-06   5.048598786790000E-06   5.325014575810000E-06
   5.606075899920000E-06   5.891860833490000E-06   6.182448763080000E-06
   6.477920409420000E-06   6.778357849860000E-06   7.083844541190000E-06
   7.394465342790000E-06   7.710306540200000E-06   8.031455869120000E-06
   8.358002539770000E-06   8.690037261650000E-06   9.027652268770000E-06
   9.370941345240000E-06   9.719999851350000E-06   1.007492475000000E-05
   1.043581463380000E-05   1.080276975220000E-05   1.117589203960000E-05
   1.155528514340000E-05   1.194105445310000E-05   1.233330712920000E-05
   1.273215213340000E-05   1.313770025850000E-05   1.355006415940000E-05
   1.396935838430000E-05   1.439569940640000E-05   1.482920565660000E-05
   1.526999755600000E-05   1.571819754980000E-05   1.617393014070000E-05
   1.663732192410000E-05   1.710850162300000E-05   1.758760012350000E-05
   1.807475051170000E-05   1.857008811030000E-05   1.907375051620000E-05
   1.958587763890000E-05   2.010661173920000E-05   2.063609746890000E-05
   2.117448191070000E-05   2.172191461930000E-05   2.227854766280000E-05
   2.284453566520000E-05   2.342003584890000E-05   2.400520807890000E-05
   2.460021490670000E-05   2.520522161580000E-05   2.582039626760000E-05
   2.644590974780000E-05   2.708193581420000E-05   2.772865114480000E-05
   2.838623538690000E-05   2.905487120710000E-05   2.973474434180000E-05
   3.042604364900000E-05   3.112896116070000E-05   3.184369213640000E-05
   3.257043511700000E-05   3.330939198020000E-05   3.406076799660000E-05
   3.482477188660000E-05   3.560161587840000E-05   3.639151576700000E-05
   3.719469097400000E-05   3.801136460900000E-05   3.884176353090000E-05
   3.968611841140000E-05   4.054466379900000E-05   4.141763818400000E-05
   4.230528406500000E-05   4.320784801590000E-05   4.412558075470000E-05
   4.505873721320000E-05   4.600757660740000E-05   4.697236251000000E-05
   4.795336292320000E-05   4.895085035350000E-05   4.996510188700000E-05
   5.099639926690000E-05   5.204502897140000E-05   5.311128229310000E-05
   5.419545542030000E-05   5.529784951940000E-05   5.641877081790000E-05
   5.755853069010000E-05   5.871744574320000E-05   5.989583790570000E-05
   6.109403451610000E-05   6.231236841460000E-05   6.355117803520000E-05
   6.481080749950000E-05   6.609160671280000E-05   6.739393146079999E-05
   6.871814350880001E-05   7.006461070190001E-05   7.143370706760000E-05
   7.282581291910000E-05   7.424131496150001E-05   7.568060639890000E-05
   7.714408704370000E-05   7.863216342780000E-05   8.014524891510000E-05
   8.168376381710001E-05   8.324813550890000E-05   8.483879854810000E-05
   8.645619479590001E-05   8.810077353940000E-05   8.977299161660000E-05
   9.147331354330000E-05   9.320221164210000E-05   9.496016617349999E-05
   9.674766546960000E-05   9.856520606940000E-05   1.004132928570000E-04
   1.022924392020000E-04   1.042031671010000E-04   1.061460073240000E-04
   1.081214995620000E-04   1.101301925760000E-04   1.121726443470000E-04
   1.142494222380000E-04   1.163611031450000E-04   1.185082736580000E-04
   1.206915302290000E-04   1.229114793300000E-04   1.251687376300000E-04
   1.274639321590000E-04   1.297977004850000E-04   1.321706908920000E-04
   1.345835625610000E-04   1.370369857470000E-04   1.395316419750000E-04
   1.420682242190000E-04   1.446474371020000E-04   1.472699970900000E-04
   1.499366326870000E-04   1.526480846420000E-04   1.554051061550000E-04
   1.582084630830000E-04   1.610589341530000E-04   1.639573111820000E-04
   1.669043992930000E-04   1.699010171400000E-04   1.729479971370000E-04
   1.760461856870000E-04   1.791964434160000E-04   1.823996454180000E-04
   1.856566814910000E-04   1.889684563890000E-04   1.923358900690000E-04
   1.957599179530000E-04   1.992414911800000E-04   2.027815768770000E-04
   2.063811584240000E-04   2.100412357280000E-04   2.137628255000000E-04
   2.175469615400000E-04   2.213946950200000E-04   2.253070947800000E-04
   2.292852476230000E-04   2.333302586170000E-04   2.374432514020000E-04
   2.416253685030000E-04   2.458777716460000E-04   2.502016420800000E-04
   2.545981809100000E-04   2.590686094240000E-04   2.636141694370000E-04
   2.682361236330000E-04   2.729357559180000E-04   2.777143717760000E-04
   2.825732986310000E-04   2.875138862160000E-04   2.925375069480000E-04
   2.976455563100000E-04   3.028394532370000E-04   3.081206405120000E-04
   3.134905851650000E-04   3.189507788820000E-04   3.245027384190000E-04
   3.301480060220000E-04   3.358881498570000E-04   3.417247644460000E-04
   3.476594711090000E-04   3.536939184120000E-04   3.598297826300000E-04
   3.660687682100000E-04   3.724126082420000E-04   3.788630649460000E-04
   3.854219301560000E-04   3.920910258230000E-04   3.988722045140000E-04
   4.057673499350000E-04   4.127783774470000E-04   4.199072346050000E-04
   4.271559016910000E-04   4.345263922710000E-04   4.420207537510000E-04
   4.496410679460000E-04   4.573894516590000E-04   4.652680572690000E-04
   4.732790733270000E-04   4.814247251680000E-04   4.897072755250000E-04
   4.981290251600000E-04   5.066923135020000E-04   5.153995192970000E-04
   5.242530612690000E-04   5.332553987920000E-04   5.424090325740000E-04
   5.517165053500000E-04   5.611804025880000E-04   5.708033532100000E-04
   5.805880303200000E-04   5.905371519460000E-04   6.006534817960001E-04
   6.109398300290000E-04   6.213990540280000E-04   6.320340592020000E-04
   6.428477997860000E-04   6.538432796670000E-04   6.650235532160000E-04
   6.763917261360000E-04   6.879509563250000E-04   6.997044547570000E-04
   7.116554863660000E-04   7.238073709610000E-04   7.361634841430000E-04
   7.487272582460000E-04   7.615021832870000E-04   7.744918079390000E-04
   7.876997405140000E-04   8.011296499690000E-04   8.147852669180000E-04
   8.286703846770000E-04   8.427888603130000E-04   8.571446157160000E-04
   8.717416386860000E-04   8.865839840470000E-04   9.016757747680000E-04
   9.170212031100000E-04   9.326245317900000E-04   9.484900951680000E-04
   9.646223004450000E-04   9.810256288940000E-04   9.977046371000000E-04
   1.014663958230000E-03   1.031908303310000E-03   1.049442462560000E-03
   1.067271306670000E-03   1.085399788230000E-03   1.103832943050000E-03
   1.122575891550000E-03   1.141633840240000E-03   1.161012083100000E-03
   1.180716003120000E-03   1.200751073740000E-03   1.221122860360000E-03
   1.241837021970000E-03   1.262899312610000E-03   1.284315583070000E-03
   1.306091782450000E-03   1.328233959830000E-03   1.350748265960000E-03
   1.373640954960000E-03   1.396918386050000E-03   1.420587025340000E-03
   1.444653447600000E-03   1.469124338100000E-03   1.494006494480000E-03
   1.519306828590000E-03   1.545032368480000E-03   1.571190260290000E-03
   1.597787770280000E-03   1.624832286800000E-03   1.652331322410000E-03
   1.680292515890000E-03   1.708723634430000E-03   1.737632575730000E-03
   1.767027370260000E-03   1.796916183420000E-03   1.827307317840000E-03
   1.858209215710000E-03   1.889630461090000E-03   1.921579782300000E-03
   1.954066054350000E-03   1.987098301430000E-03   2.020685699360000E-03
   2.054837578200000E-03   2.089563424800000E-03   2.124872885450000E-03
   2.160775768560000E-03   2.197282047390000E-03   2.234401862800000E-03
   2.272145526090000E-03   2.310523521860000E-03   2.349546510900000E-03
   2.389225333190000E-03   2.429571010880000E-03   2.470594751350000E-03
   2.512307950360000E-03   2.554722195180000E-03   2.597849267810000E-03
   2.641701148260000E-03   2.686290017910000E-03   2.731628262840000E-03
   2.777728477290000E-03   2.824603467170000E-03   2.872266253620000E-03
   2.920730076600000E-03   2.970008398610000E-03   3.020114908380000E-03
   3.071063524700000E-03   3.122868400300000E-03   3.175543925760000E-03
   3.229104733500000E-03   3.283565701880000E-03   3.338941959280000E-03
   3.395248888360000E-03   3.452502130290000E-03   3.510717589120000E-03
   3.569911436180000E-03   3.630100114600000E-03   3.691300343830000E-03
   3.753529124330000E-03   3.816803742280000E-03   3.881141774360000E-03
   3.946561092670000E-03   4.013079869650000E-03   4.080716583180000E-03
   4.149490021660000E-03   4.219419289260000E-03   4.290523811250000E-03
   4.362823339320000E-03   4.436337957150000E-03   4.511088085930000E-03
   4.587094490070000E-03   4.664378282960000E-03   4.742960932800000E-03
   4.822864268610000E-03   4.904110486290000E-03   4.986722154740000E-03
   5.070722222190000E-03   5.156134022520000E-03   5.242981281790000E-03
   5.331288124790000E-03   5.421079081770000E-03   5.512379095240000E-03
   5.605213526900000E-03   5.699608164680000E-03   5.795589229940000E-03
   5.893183384690000E-03   5.992417739050000E-03   6.093319858760000E-03
   6.195917772820000E-03   6.300239981330000E-03   6.406315463340000E-03
   6.514173684940000E-03   6.623844607460000E-03   6.735358695730000E-03
   6.848746926610000E-03   6.964040797560000E-03   7.081272335390000E-03
   7.200474105190000E-03   7.321679219310000E-03   7.444921346620000E-03
   7.570234721840000E-03   7.697654155050000E-03   7.827215041339999E-03
   7.958953370700000E-03   8.092905737950001E-03   8.229109352940000E-03
   8.367602050880000E-03   8.508422302850000E-03   8.651609226509999E-03
   8.797202596909999E-03   8.945242857600001E-03   9.095771131820000E-03
   9.248829233950000E-03   9.404459681110000E-03   9.562705704990000E-03
   9.723611263820001E-03   9.887221054640001E-03   1.005358052570000E-02
   1.022273588890000E-02   1.039473413310000E-02   1.056962303660000E-02
   1.074745118070000E-02   1.092826796350000E-02   1.111212361280000E-02
   1.129906920090000E-02   1.148915665830000E-02   1.168243878830000E-02
   1.187896928170000E-02   1.207880273150000E-02   1.228199464820000E-02
   1.248860147540000E-02   1.269868060530000E-02   1.291229039440000E-02
   1.312949018010000E-02   1.335034029730000E-02   1.357490209440000E-02
   1.380323795140000E-02   1.403541129620000E-02   1.427148662290000E-02
   1.451152950950000E-02   1.475560663630000E-02   1.500378580380000E-02
   1.525613595240000E-02   1.551272718100000E-02   1.577363076660000E-02
   1.603891918400000E-02   1.630866612620000E-02   1.658294652470000E-02
   1.686183657010000E-02   1.714541373380000E-02   1.743375678900000E-02
   1.772694583280000E-02   1.802506230860000E-02   1.832818902840000E-02
   1.863641019590000E-02   1.894981143030000E-02   1.926847978930000E-02
   1.959250379410000E-02   1.992197345330000E-02   2.025698028850000E-02
   2.059761735920000E-02   2.094397928910000E-02   2.129616229200000E-02
   2.165426419880000E-02   2.201838448450000E-02   2.238862429610000E-02
   2.276508648030000E-02   2.314787561230000E-02   2.353709802500000E-02
   2.393286183810000E-02   2.433527698860000E-02   2.474445526110000E-02
   2.516051031880000E-02   2.558355773530000E-02   2.601371502640000E-02
   2.645110168310000E-02   2.689583920440000E-02   2.734805113150000E-02
   2.780786308160000E-02   2.827540278320000E-02   2.875080011160000E-02
   2.923418712450000E-02   2.972569809930000E-02   3.022546956990000E-02
   3.073364036490000E-02   3.125035164620000E-02   3.177574694800000E-02
   3.230997221690000E-02   3.285317585210000E-02   3.340550874710000E-02
   3.396712433120000E-02   3.453817861230000E-02   3.511883022040000E-02
   3.570924045120000E-02   3.630957331150000E-02   3.691999556410000E-02
   3.754067677480000E-02   3.817178935890000E-02   3.881350862970000E-02
   3.946601284660000E-02   4.012948326490000E-02   4.080410418620000E-02
   4.149006300960000E-02   4.218755028370000E-02   4.289675975930000E-02
   4.361788844370000E-02   4.435113665500000E-02   4.509670807800000E-02
   4.585480982070000E-02   4.662565247170000E-02   4.740945015900000E-02
   4.820642060910000E-02   4.901678520800000E-02   4.984076906210000E-02
   5.067860106100000E-02   5.153051394130000E-02   5.239674435090000E-02
   5.327753291500000E-02   5.417312430270000E-02   5.508376729520000E-02
   5.600971485470000E-02   5.695122419470000E-02   5.790855685180000E-02
   5.888197875780000E-02   5.987176031400000E-02   6.087817646600000E-02
   6.190150678040000E-02   6.294203552210000E-02   6.400005173360000E-02
   6.507584931520000E-02   6.616972710629999E-02   6.728198896900001E-02
   6.841294387200000E-02   6.956290597680000E-02   7.073219472460000E-02
   7.192113492549999E-02   7.313005684820000E-02   7.435929631210000E-02
   7.560919478060001E-02   7.688009945570000E-02   7.817236337460000E-02
   7.948634550800000E-02   8.082241085910000E-02   8.218093056600000E-02
   8.356228200390001E-02   8.496684889050000E-02   8.639502139220000E-02
   8.784719623280000E-02   8.932377680360000E-02   9.082517327520000E-02
   9.235180271210000E-02   9.390408918760000E-02   9.548246390249999E-02
   9.708736530430000E-02   9.871923920929999E-02   1.003785389260000E-01
   1.020657253830000E-01   1.037812672520000E-01   1.055256410840000E-01
   1.072993314400000E-01   1.091028310220000E-01   1.109366408140000E-01
   1.128012702180000E-01   1.146972372010000E-01   1.166250684310000E-01
   1.185852994300000E-01   1.205784747180000E-01   1.226051479690000E-01
   1.246658821610000E-01   1.267612497310000E-01   1.288918327420000E-01
   1.310582230350000E-01   1.332610223980000E-01   1.355008427350000E-01
   1.377783062330000E-01   1.400940455350000E-01   1.424487039170000E-01
   1.448429354660000E-01   1.472774052610000E-01   1.497527895590000E-01
   1.522697759840000E-01   1.548290637150000E-01   1.574313636800000E-01
   1.600773987590000E-01   1.627679039770000E-01   1.655036267150000E-01
   1.682853269130000E-01   1.711137772840000E-01   1.739897635260000E-01
   1.769140845430000E-01   1.798875526650000E-01   1.829109938750000E-01
   1.859852480360000E-01   1.891111691290000E-01   1.922896254850000E-01
   1.955215000280000E-01   1.988076905220000E-01   2.021491098200000E-01
   2.055466861140000E-01   2.090013631980000E-01   2.125141007270000E-01
   2.160858744830000E-01   2.197176766480000E-01   2.234105160810000E-01
   2.271654185930000E-01   2.309834272380000E-01   2.348656025970000E-01
   2.388130230780000E-01   2.428267852120000E-01   2.469080039580000E-01
   2.510578130150000E-01   2.552773651340000E-01   2.595678324400000E-01
   2.639304067570000E-01   2.683662999390000E-01   2.728767442080000E-01
   2.774629924930000E-01   2.821263187830000E-01   2.868680184740000E-01
   2.916894087370000E-01   2.965918288780000E-01   3.015766407110000E-01
   3.066452289390000E-01   3.117990015360000E-01   3.170393901370000E-01
   3.223678504400000E-01   3.277858626080000E-01   3.332949316780000E-01
   3.388965879840000E-01   3.445923875750000E-01   3.503839126570000E-01
   3.562727720230000E-01   3.622606015040000E-01   3.683490644260000E-01
   3.745398520680000E-01   3.808346841320000E-01   3.872353092230000E-01
   3.937435053350000E-01   4.003610803400000E-01   4.070898724980000E-01
   4.139317509590000E-01   4.208886162900000E-01   4.279624009990000E-01
   4.351550700700000E-01   4.424686215150000E-01   4.499050869210000E-01
   4.574665320210000E-01   4.651550572670000E-01   4.729727984070000E-01
   4.809219270880000E-01   4.890046514520000E-01   4.972232167520000E-01
   5.055799059760000E-01   5.140770404800000E-01   5.227169806340000E-01
   5.315021264760000E-01   5.404349183820000E-01   5.495178377400000E-01
   5.587534076420000E-01   5.681441935820000E-01   5.776928041740000E-01
   5.874018918700000E-01   5.972741537020000E-01   6.073123320270000E-01
   6.175192152950000E-01   6.278976388140000E-01   6.384504855480000E-01
   6.491806869109999E-01   6.600912235830000E-01   6.711851263390000E-01
   6.824654768900000E-01   6.939354087389999E-01   7.055981080520000E-01
   7.174568145440000E-01   7.295148223740000E-01   7.417754810680000E-01
   7.542421964420000E-01   7.669184315540000E-01   7.798077076620000E-01
   7.929136052020000E-01   8.062397647860000E-01   8.197898882110000E-01
   8.335677394870000E-01   8.475771458840000E-01   8.618219989920000E-01
   8.763062558090000E-01   8.910339398310000E-01   9.060091421770000E-01
   9.212360227200000E-01   9.367188112490000E-01   9.524618086380000E-01
   9.684693880410000E-01   9.847459961130000E-01   1.001296154240000E+00
   1.018124459790000E+00   1.035235587400000E+00   1.052634290280000E+00
   1.070325401500000E+00   1.088313835390000E+00   1.106604588840000E+00
   1.125202742730000E+00   1.144113463350000E+00   1.163342003780000E+00
   1.182893705410000E+00   1.202773999400000E+00   1.222988408190000E+00
   1.243542547000000E+00   1.264442125460000E+00   1.285692949140000E+00
   1.307300921190000E+00   1.329272043950000E+00   1.351612420660000E+00
   1.374328257130000E+00   1.397425863440000E+00   1.420911655760000E+00
   1.444792158070000E+00   1.469074003980000E+00   1.493763938620000E+00
   1.518868820460000E+00   1.544395623240000E+00   1.570351437900000E+00
   1.596743474550000E+00   1.623579064490000E+00   1.650865662230000E+00
   1.678610847540000E+00   1.706822327600000E+00   1.735507939110000E+00
   1.764675650490000E+00   1.794333564070000E+00   1.824489918340000E+00
   1.855153090260000E+00   1.886331597580000E+00   1.918034101190000E+00
   1.950269407560000E+00   1.983046471130000E+00   2.016374396860000E+00
   2.050262442720000E+00   2.084720022280000E+00   2.119756707310000E+00
   2.155382230440000E+00   2.191606487880000E+00   2.228439542160000E+00
   2.265891624910000E+00   2.303973139750000E+00   2.342694665110000E+00
   2.382066957210000E+00   2.422100953060000E+00   2.462807773470000E+00
   2.504198726160000E+00   2.546285308870000E+00   2.589079212600000E+00
   2.632592324810000E+00   2.676836732760000E+00   2.721824726850000E+00
   2.767568804030000E+00   2.814081671280000E+00   2.861376249150000E+00
   2.909465675320000E+00   2.958363308280000E+00   3.008082731000000E+00
   3.058637754780000E+00   3.110042422980000E+00   3.162311015030000E+00
   3.215458050300000E+00   3.269498292200000E+00   3.324446752260000E+00
   3.380318694300000E+00   3.437129638660000E+00   3.494895366510000E+00
   3.553631924270000E+00   3.613355628030000E+00   3.674083068090000E+00
   3.735831113560000E+00   3.798616917090000E+00   3.862457919580000E+00
   3.927371855050000E+00   3.993376755560000E+00   4.060490956240000E+00
   4.128733100350000E+00   4.198122144470000E+00   4.268677363800000E+00
   4.340418357460000E+00   4.413365053960000E+00   4.487537716740000E+00
   4.562956949790000E+00   4.639643703400000E+00   4.717619279920000E+00
   4.796905339740000E+00   4.877523907280000E+00   4.959497377100000E+00
   5.042848520130000E+00   5.127600490020000E+00   5.213776829510000E+00
   5.301401477030000E+00   5.390498773340000E+00   5.481093468230000E+00
   5.573210727510000E+00   5.666876139870000E+00   5.762115724110000E+00
   5.858955936260000E+00   5.957423677010000E+00   6.057546299140000E+00
   6.159351615140000E+00   6.262867904920000E+00   6.368123923660000E+00
   6.475148909830000E+00   6.583972593280000E+00   6.694625203500000E+00
   6.807137478050000E+00   6.921540671060000E+00   7.037866561920000E+00
   7.156147464150000E+00   7.276416234290000E+00   7.398706281120000E+00
   7.523051574880000E+00   7.649486656720000E+00   7.778046648330000E+00
   7.908767261630000E+00   8.041684808739999E+00   8.176836212070000E+00
   8.314259014530000E+00   8.453991390010000E+00   8.596072153960000E+00
   8.740540774170000E+00   8.887437381750001E+00   9.036802782240001E+00
   9.188678467000001E+00   9.343106624700001E+00   9.500130153030000E+00
   9.659792670660000E+00   9.822138529320000E+00   9.987212826109999E+00
   1.015506141610000E+01   1.032573092490000E+01   1.049926876190000E+01
   1.067572313310000E+01   1.085514305470000E+01   1.103757836680000E+01
   1.122307974710000E+01   1.141169872490000E+01   1.160348769550000E+01
   1.179849993490000E+01   1.199678961440000E+01   1.219841181580000E+01
   1.240342254650000E+01   1.261187875530000E+01   1.282383834810000E+01
   1.303936020370000E+01   1.325850419090000E+01   1.348133118430000E+01
   1.370790308180000E+01   1.393828282150000E+01   1.417253439920000E+01
   1.441072288630000E+01   1.465291444780000E+01   1.489917636070000E+01
   1.514957703260000E+01   1.540418602100000E+01   1.566307405220000E+01
   1.592631304110000E+01   1.619397611150000E+01   1.646613761590000E+01
   1.674287315640000E+01   1.702425960590000E+01   1.731037512890000E+01
   1.760129920400000E+01   1.789711264530000E+01   1.819789762490000E+01
   1.850373769630000E+01   1.881471781700000E+01   1.913092437230000E+01
   1.945244519940000E+01   1.977936961180000E+01   2.011178842390000E+01
   2.044979397640000E+01   2.079348016190000E+01   2.114294245090000E+01
   2.149827791870000E+01   2.185958527170000E+01   2.222696487540000E+01
   2.260051878220000E+01   2.298035075930000E+01   2.336656631810000E+01
   2.375927274320000E+01   2.415857912220000E+01   2.456459637620000E+01
   2.497743729030000E+01   2.539721654510000E+01   2.582405074890000E+01
   2.625805846920000E+01   2.669936026670000E+01   2.714807872800000E+01
   2.760433850010000E+01   2.806826632460000E+01   2.853999107330000E+01
   2.901964378410000E+01   2.950735769680000E+01   3.000326829070000E+01
   3.050751332180000E+01   3.102023286150000E+01   3.154156933520000E+01
   3.207166756190000E+01   3.261067479460000E+01   3.315874076080000E+01
   3.371601770480000E+01   3.428266042930000E+01   3.485882633850000E+01
   3.544467548240000E+01   3.604037060060000E+01   3.664607716770000E+01
   3.726196343950000E+01   3.788820049950000E+01   3.852496230640000E+01
   3.917242574260000E+01   3.983077066320000E+01   4.050017994610000E+01
   4.118083954250000E+01   4.187293852900000E+01   4.257666915980000E+01
   4.329222692000000E+01   4.401981058030000E+01   4.475962225200000E+01
   4.551186744310000E+01   4.627675511540000E+01   4.705449774270000E+01
   4.784531136950000E+01   4.864941567140000E+01   4.946703401580000E+01
   5.029839352430000E+01   5.114372513530000E+01   5.200326366870000E+01
   5.287724789060000E+01   5.376592058010000E+01   5.466952859650000E+01
   5.558832294770000E+01   5.652255886040000E+01   5.747249585040000E+01
   5.843839779540000E+01   5.942053300750000E+01   6.041917430860000E+01
   6.143459910520000E+01   6.246708946650000E+01   6.351693220190000E+01
   6.458441894120000E+01   6.566984621530000E+01   6.677351553870000E+01
   6.789573349350000E+01   6.903681181400000E+01   7.019706747370000E+01
   7.137682277339999E+01   7.257640543040000E+01   7.379614866990001E+01
   7.503639131720000E+01   7.629747789229999E+01   7.757975870490000E+01
   7.888358995260000E+01   8.020933381899999E+01   8.155735857470000E+01
   8.292803867990000E+01   8.432175488790000E+01   8.573889435080000E+01
   8.717985072780000E+01   8.864502429370000E+01   9.013482205070000E+01
   9.164965784090001E+01   9.318995246199999E+01   9.475613378330000E+01
   9.634863686529999E+01   9.796790408030000E+01   9.961438523510000E+01
   1.012885376960000E+02   1.029908265170000E+02   1.047217245650000E+02
   1.064817126590000E+02   1.082712796930000E+02   1.100909227830000E+02
   1.119411473950000E+02   1.138224674940000E+02   1.157354056790000E+02
   1.176804933360000E+02   1.196582707790000E+02   1.216692874020000E+02
   1.237141018360000E+02   1.257932820960000E+02   1.279074057470000E+02
   1.300570600580000E+02   1.322428421700000E+02   1.344653592590000E+02
   1.367252287040000E+02   1.390230782610000E+02   1.413595462370000E+02
   1.437352816660000E+02   1.461509444890000E+02   1.486072057400000E+02
   1.511047477290000E+02
    </PP_R>
    <PP_RAB>
   1.899754094910000E-07   1.931681989880000E-07   1.964146475600000E-07
   1.997156570200000E-07   2.030721443350000E-07   2.064850418850000E-07
   2.099552977180000E-07   2.134838758180000E-07   2.170717563670000E-07
   2.207199360220000E-07   2.244294281900000E-07   2.282012633090000E-07
   2.320364891340000E-07   2.359361710320000E-07   2.399013922730000E-07
   2.439332543310000E-07   2.480328771960000E-07   2.522013996770000E-07
   2.564399797240000E-07   2.607497947470000E-07   2.651320419460000E-07
   2.695879386390000E-07   2.741187226040000E-07   2.787256524210000E-07
   2.834100078220000E-07   2.881730900490000E-07   2.930162222090000E-07
   2.979407496470000E-07   3.029480403220000E-07   3.080394851770000E-07
   3.132164985370000E-07   3.184805184940000E-07   3.238330073090000E-07
   3.292754518200000E-07   3.348093638510000E-07   3.404362806370000E-07
   3.461577652450000E-07   3.519754070130000E-07   3.578908219910000E-07
   3.639056533880000E-07   3.700215720280000E-07   3.762402768180000E-07
   3.825634952140000E-07   3.889929837090000E-07   3.955305283110000E-07
   4.021779450470000E-07   4.089370804660000E-07   4.158098121470000E-07
   4.227980492280000E-07   4.299037329300000E-07   4.371288371000000E-07
   4.444753687580000E-07   4.519453686540000E-07   4.595409118360000E-07
   4.672641082260000E-07   4.751171032070000E-07   4.831020782150000E-07
   4.912212513520000E-07   4.994768779950000E-07   5.078712514270000E-07
   5.164067034720000E-07   5.250856051440000E-07   5.339103673060000E-07
   5.428834413350000E-07   5.520073198110000E-07   5.612845372040000E-07
   5.707176705770000E-07   5.803093403060001E-07   5.900622108050000E-07
   5.999789912679999E-07   6.100624364200000E-07   6.203153472829999E-07
   6.307405719530000E-07   6.413410063940000E-07   6.521195952370000E-07
   6.630793326060000E-07   6.742232629420000E-07   6.855544818530000E-07
   6.970761369730000E-07   7.087914288359999E-07   7.207036117630000E-07
   7.328159947730000E-07   7.451319424940000E-07   7.576548761010000E-07
   7.703882742670000E-07   7.833356741300000E-07   7.965006722730000E-07
   8.098869257240000E-07   8.234981529730000E-07   8.373381350050000E-07
   8.514107163470000E-07   8.657198061400000E-07   8.802693792240000E-07
   8.950634772400000E-07   9.101062097550000E-07   9.254017554030000E-07
   9.409543630440000E-07   9.567683529480000E-07   9.728481179909999E-07
   9.891981248770001E-07   1.005822915380000E-06   1.022727107610000E-06
   1.039915397270000E-06   1.057392559010000E-06   1.075163447710000E-06
   1.093232999830000E-06   1.111606234810000E-06   1.130288256460000E-06
   1.149284254330000E-06   1.168599505210000E-06   1.188239374580000E-06
   1.208209318090000E-06   1.228514883070000E-06   1.249161710080000E-06
   1.270155534480000E-06   1.291502188040000E-06   1.313207600500000E-06
   1.335277801300000E-06   1.357718921190000E-06   1.380537193950000E-06
   1.403738958140000E-06   1.427330658850000E-06   1.451318849470000E-06
   1.475710193550000E-06   1.500511466620000E-06   1.525729558080000E-06
   1.551371473110000E-06   1.577444334640000E-06   1.603955385290000E-06
   1.630911989420000E-06   1.658321635150000E-06   1.686191936430000E-06
   1.714530635210000E-06   1.743345603530000E-06   1.772644845720000E-06
   1.802436500650000E-06   1.832728843980000E-06   1.863530290440000E-06
   1.894849396190000E-06   1.926694861170000E-06   1.959075531560000E-06
   1.992000402200000E-06   2.025478619090000E-06   2.059519481950000E-06
   2.094132446800000E-06   2.129327128570000E-06   2.165113303800000E-06
   2.201500913300000E-06   2.238500065000000E-06   2.276121036660000E-06
   2.314374278800000E-06   2.353270417570000E-06   2.392820257690000E-06
   2.433034785500000E-06   2.473925171950000E-06   2.515502775740000E-06
   2.557779146470000E-06   2.600766027860000E-06   2.644475360980000E-06
   2.688919287600000E-06   2.734110153530000E-06   2.780060512080000E-06
   2.826783127540000E-06   2.874290978710000E-06   2.922597262530000E-06
   2.971715397710000E-06   3.021659028500000E-06   3.072442028440000E-06
   3.124078504270000E-06   3.176582799760000E-06   3.229969499790000E-06
   3.284253434340000E-06   3.339449682630000E-06   3.395573577310000E-06
   3.452640708700000E-06   3.510666929160000E-06   3.569668357440000E-06
   3.629661383230000E-06   3.690662671620000E-06   3.752689167830000E-06
   3.815758101820000E-06   3.879886993150000E-06   3.945093655820000E-06
   4.011396203210000E-06   4.078813053110000E-06   4.147362932860000E-06
   4.217064884540000E-06   4.287938270250000E-06   4.360002777500000E-06