<UPF version="2.0.1">
  <PP_INFO>
    Generated by new atomic code, or converted to UPF format
    Author: 
    Generation date: 
    Pseudopotential type: US
    Element: I
    Functional: SLA  PZ   NOGX NOGC
    Suggested minimum cutoff for wavefunctions:   0. Ry
    Suggested minimum cutoff for charge density:   0. Ry
    The Pseudo was generated with a Non-Relativistic Calculation
    L component and cutoff radius for Local Potential:  0   0.0000
    Valence configuration: 
    nl pn  l   occ       Rcut    Rcut US       E pseu
    5S  1  0  2.00      0.000      0.000     0.000000
    5P  2  1  5.00      0.000      0.000     0.000000
    Generation configuration: not available.
  </PP_INFO>
    <!-- END OF HUMAN READABLE SECTION -->
  <PP_HEADER generated="Generated by new atomic code, or converted to UPF format" author="" date="" comment="" element="I" pseudo_type="US" relativistic="no" is_ultrasoft="true" is_paw="false" is_coulomb="false" has_so="false" has_wfc="false" has_gipaw="false" paw_as_gipaw="false" core_correction="true" functional="SLA  PZ   NOGX NOGC" z_valence="7.0000000000000000" total_psenergy="-64.545015124900004" wfc_cutoff="0.0000000000000000" rho_cutoff="0.0000000000000000" l_max="2" l_max_rho="0" l_local="0" mesh_size="893" number_of_wfc="2" number_of_proj="6"/>
  <PP_MESH>
    <PP_R>
   0.000000000000000E+00   1.079632289860000E-09   2.186595601260000E-09
   3.321581822310000E-09   4.485300356330000E-09   5.678478565300000E-09
   6.901862224440000E-09   8.156215988350000E-09   9.442323868979999E-09
   1.076098972560000E-08   1.211303776730000E-08   1.349931306820000E-08
   1.492068209540000E-08   1.637803325080000E-08   1.787227742640000E-08
   1.940434857330000E-08   2.097520428600000E-08   2.258582640040000E-08
   2.423722160770000E-08   2.593042208380000E-08   2.766648613390000E-08
   2.944649885470000E-08   3.127157281210000E-08   3.314284873670000E-08
   3.506149623690000E-08   3.702871452970000E-08   3.904573319080000E-08
   4.111381292230000E-08   4.323424634160000E-08   4.540835878830000E-08
   4.763750915370000E-08   4.992309072930000E-08   5.226653207790000E-08
   5.466929792670000E-08   5.713289008260000E-08   5.965884837080000E-08
   6.224875159750001E-08   6.490421853660000E-08   6.762690894120001E-08
   7.041852458160000E-08   7.328081030840000E-08   7.621555514340000E-08
   7.922459339750000E-08   8.230980581780000E-08   8.547312076220000E-08
   8.871651540580000E-08   9.204201697569999E-08   9.545170401859999E-08
   9.894770769990001E-08   1.025322131360000E-07   1.062074607590000E-07
   1.099757477180000E-07   1.138394293170000E-07   1.178009204800000E-07
   1.218626972700000E-07   1.260272984280000E-07   1.302973269670000E-07
   1.346754517930000E-07   1.391644093770000E-07   1.437670054630000E-07
   1.484861168240000E-07   1.533246930570000E-07   1.582857584310000E-07
   1.633724137730000E-07   1.685878384080000E-07   1.739352921460000E-07
   1.794181173200000E-07   1.850397408740000E-07   1.908036765060000E-07
   1.967135268630000E-07   2.027729857940000E-07   2.089858406580000E-07
   2.153559746920000E-07   2.218873694370000E-07   2.285841072270000E-07
   2.354503737420000E-07   2.424904606200000E-07   2.497087681470000E-07
   2.571098079980000E-07   2.646982060660000E-07   2.724787053450000E-07
   2.804561689010000E-07   2.886355829080000E-07   2.970220597670000E-07
   3.056208412980000E-07   3.144373020200000E-07   3.234769525080000E-07
   3.327454428380000E-07   3.422485661170000E-07   3.519922621070000E-07
   3.619826209360000E-07   3.722258869030000E-07   3.827284623820000E-07
   3.934969118250000E-07   4.045379658640000E-07   4.158585255160000E-07
   4.274656665000000E-07   4.393666436580000E-07   4.515688954860000E-07
   4.640800487900000E-07   4.769079234480001E-07   4.900605372990000E-07
   5.035461111550000E-07   5.173730739390000E-07   5.315500679510000E-07
   5.460859542760000E-07   5.609898183150000E-07   5.762709754690000E-07
   5.919389769570000E-07   6.080036157920000E-07   6.244749328950000E-07
   6.413632233750000E-07   6.586790429650000E-07   6.764332146140000E-07
   6.946368352590000E-07   7.133012827540000E-07   7.324382229870000E-07
   7.520596171690000E-07   7.721777293090000E-07   7.928051338820000E-07
   8.139547236890000E-07   8.356397179100000E-07   8.578736703740000E-07
   8.806704780240000E-07   9.040443896070000E-07   9.280100145800000E-07
   9.525823322360000E-07   9.777767010760001E-07   1.003608868400000E-06
   1.030094980150000E-06   1.057251591020000E-06   1.085095674760000E-06
   1.113644634830000E-06   1.142916315280000E-06   1.172929011840000E-06
   1.203701483430000E-06   1.235252963850000E-06   1.267603173790000E-06
   1.300772333210000E-06   1.334781173890000E-06   1.369650952470000E-06
   1.405403463690000E-06   1.442061054050000E-06   1.479646635730000E-06
   1.518183700940000E-06   1.557696336590000E-06   1.598209239390000E-06
   1.639747731190000E-06   1.682337774930000E-06   1.726005990750000E-06
   1.770779672720000E-06   1.816686805850000E-06   1.863756083590000E-06
   1.912016925760000E-06   1.961499496970000E-06   2.012234725440000E-06
   2.064254322320000E-06   2.117590801580000E-06   2.172277500230000E-06
   2.228348599250000E-06   2.285839144900000E-06   2.344785070640000E-06
   2.405223219600000E-06   2.467191367580000E-06   2.530728246700000E-06
   2.595873569570000E-06   2.662668054140000E-06   2.731153449130000E-06
   2.801372560160000E-06   2.873369276440000E-06   2.947188598280000E-06
   3.022876665140000E-06   3.100480784540000E-06   3.180049461570000E-06
   3.261632429260000E-06   3.345280679600000E-06   3.431046495480000E-06
   3.518983483330000E-06   3.609146606620000E-06   3.701592220250000E-06
   3.796378105730000E-06   3.893563507320000E-06   3.993209169070000E-06
   4.095377372750000E-06   4.200131976830000E-06   4.307538456330000E-06
   4.417663943800000E-06   4.530577271270000E-06   4.646349013230000E-06
   4.765051530780000E-06   4.886759016880000E-06   5.011547542660000E-06
   5.139495105000000E-06   5.270681675310000E-06   5.405189249460000E-06
   5.543101899050000E-06   5.684505824000000E-06   5.829489406340000E-06
   5.978143265550000E-06   6.130560315120000E-06   6.286835820670000E-06
   6.447067459480000E-06   6.611355381530000E-06   6.779802272140000E-06
   6.952513416080000E-06   7.129596763440000E-06   7.311162997090000E-06
   7.497325601830000E-06   7.688200935340000E-06   7.883908300920001E-06
   8.084570022050001E-06   8.290311518840001E-06   8.501261386409999E-06
   8.717551475309999E-06   8.939316973870000E-06   9.166696492760000E-06
   9.399832151580000E-06   9.638869667689999E-06   9.883958447339999E-06
   1.013525167900000E-05   1.039290642910000E-05   1.065708374020000E-05
   1.092794873180000E-05   1.120567070330000E-05   1.149042324000000E-05
   1.178238432150000E-05   1.208173643300000E-05   1.238866667920000E-05
   1.270336690160000E-05   1.302603379810000E-05   1.335686904600000E-05
   1.369607942800000E-05   1.404387696170000E-05   1.440047903190000E-05
   1.476610852650000E-05   1.514099397580000E-05   1.552536969550000E-05
   1.591947593280000E-05   1.632355901700000E-05   1.673787151320000E-05
   1.716267238010000E-05   1.759822713230000E-05   1.804480800540000E-05
   1.850269412720000E-05   1.897217169130000E-05   1.945353413660000E-05
   1.994708233020000E-05   2.045312475580000E-05   2.097197770640000E-05
   2.150396548190000E-05   2.204942059220000E-05   2.260868396420000E-05
   2.318210515600000E-05   2.377004257430000E-05   2.437286369920000E-05
   2.499094531360000E-05   2.562467373850000E-05   2.627444507490000E-05
   2.694066545100000E-05   2.762375127610000E-05   2.832412950130000E-05
   2.904223788570000E-05   2.977852527040000E-05   3.053345185890000E-05
   3.130748950500000E-05   3.210112200750000E-05   3.291484541230000E-05
   3.374916832330000E-05   3.460461221930000E-05   3.548171178060000E-05
   3.638101522300000E-05   3.730308464050000E-05   3.824849635640000E-05
   3.921784128380000E-05   4.021172529490000E-05   4.123076959950000E-05
   4.227561113360000E-05   4.334690295690000E-05   4.444531466190000E-05
   4.557153279170000E-05   4.672626126900000E-05   4.791022183700000E-05
   4.912415450950000E-05   5.036881803380000E-05   5.164499036530000E-05
   5.295346915320000E-05   5.429507223930000E-05   5.567063816920000E-05
   5.708102671640000E-05   5.852711941970000E-05   6.000982013400000E-05
   6.153005559560000E-05   6.308877600120000E-05   6.468695560169999E-05
   6.632559331140000E-05   6.800571333220000E-05   6.972836579390001E-05
   7.149462741020000E-05   7.330560215220000E-05   7.516242193810000E-05
   7.706624734070000E-05   7.901826831280001E-05   8.101970493100000E-05
   8.307180815850001E-05   8.517586062649999E-05   8.733317743630000E-05
   8.954510698120001E-05   9.181303178909999E-05   9.413836938690000E-05
   9.652257318610001E-05   9.896713339200000E-05   1.014735779340000E-04
   1.040434734220000E-04   1.066784261240000E-04   1.093800829700000E-04
   1.121501325860000E-04   1.149903063420000E-04   1.179023794380000E-04
   1.208881720160000E-04   1.239495502930000E-04   1.270884277300000E-04
   1.303067662270000E-04   1.336065773520000E-04   1.369899235930000E-04
   1.404589196510000E-04   1.440157337630000E-04   1.476625890530000E-04
   1.514017649240000E-04   1.552355984830000E-04   1.591664860010000E-04
   1.631968844100000E-04   1.673293128400000E-04   1.715663541940000E-04
   1.759106567610000E-04   1.803649358710000E-04   1.849319755930000E-04
   1.896146304760000E-04   1.944158273320000E-04   1.993385670650000E-04
   2.043859265480000E-04   2.095610605440000E-04   2.148672036810000E-04
   2.203076724710000E-04   2.258858673850000E-04   2.316052749750000E-04
   2.374694700570000E-04   2.434821179450000E-04   2.496469767380000E-04
   2.559678996750000E-04   2.624488375380000E-04   2.690938411240000E-04
   2.759070637770000E-04   2.828927639820000E-04   2.900553080300000E-04
   2.973991727440000E-04   3.049289482780000E-04   3.126493409880000E-04
   3.205651763690000E-04   3.286814020770000E-04   3.370030910170000E-04
   3.455354445160000E-04   3.542837955710000E-04   3.632536121880000E-04
   3.724505007940000E-04   3.818802097430000E-04   3.915486329110000E-04
   4.014618133770000E-04   4.116259472010000E-04   4.220473872970000E-04
   4.327326474060000E-04   4.436884061620000E-04   4.549215112720000E-04
   4.664389837910000E-04   4.782480225150000E-04   4.903560084780000E-04
   5.027705095650000E-04   5.154992852430000E-04   5.285502914120000E-04
   5.419316853740000E-04   5.556518309380000E-04   5.697193036400000E-04
   5.841428961090000E-04   5.989316235600000E-04   6.140947294280000E-04
   6.296416911490000E-04   6.455822260800000E-04   6.619262975740000E-04
   6.786841212080001E-04   6.958661711670000E-04   7.134831867910000E-04
   7.315461792890000E-04   7.500664386190000E-04   7.690555405460000E-04
   7.885253538780000E-04   8.084880478800000E-04   8.289560998870000E-04
   8.499423030970000E-04   8.714597745710000E-04   8.935219634290000E-04
   9.161426592570000E-04   9.393360007260000E-04   9.631164844290000E-04
   9.874989739439999E-04   1.012498709120000E-03   1.038131315600000E-03
   1.064412814610000E-03   1.091359632930000E-03   1.118988613210000E-03
   1.147317024450000E-03   1.176362572840000E-03   1.206143412780000E-03
   1.236678158280000E-03   1.267985894530000E-03   1.300086189910000E-03
   1.332999108130000E-03   1.366745220850000E-03   1.401345620470000E-03
   1.436821933380000E-03   1.473196333430000E-03   1.510491555800000E-03
   1.548730911220000E-03   1.587938300530000E-03   1.628138229620000E-03
   1.669355824770000E-03   1.711616848300000E-03   1.754947714740000E-03
   1.799375507290000E-03   1.844927994750000E-03   1.891633648930000E-03
   1.939521662380000E-03   1.988621966650000E-03   2.038965251050000E-03
   2.090582981750000E-03   2.143507421540000E-03   2.197771649890000E-03
   2.253409583720000E-03   2.310455998560000E-03   2.368946550260000E-03
   2.428917797330000E-03   2.490407223740000E-03   2.553453262400000E-03
   2.618095319120000E-03   2.684373797300000E-03   2.752330123150000E-03
   2.822006771570000E-03   2.893447292750000E-03   2.966696339320000E-03
   3.041799694350000E-03   3.118804299850000E-03   3.197758286230000E-03
   3.278711002280000E-03   3.361713046100000E-03   3.446816296670000E-03
   3.534073946270000E-03   3.623540533800000E-03   3.715271978770000E-03
   3.809325616330000E-03   3.905760233050000E-03   4.004636103720000E-03
   4.106015028980000E-03   4.209960373940000E-03   4.316537107850000E-03
   4.425811844610000E-03   4.537852884510000E-03   4.652730256830000E-03
   4.770515763690000E-03   4.891283024840000E-03   5.015107523760000E-03
   5.142066654800000E-03   5.272239771550000E-03   5.405708236430000E-03
   5.542555471590000E-03   5.682867011000000E-03   5.826730553940000E-03
   5.974236019800000E-03   6.125475604320000E-03   6.280543837140000E-03
   6.439537640970000E-03   6.602556392110000E-03   6.769701982580000E-03
   6.941078883810000E-03   7.116794211960000E-03   7.296957794810000E-03
   7.481682240480000E-03   7.671083007760000E-03   7.865278478280001E-03
   8.064390030549999E-03   8.268542115760001E-03   8.477862335620000E-03
   8.692481522070000E-03   8.912533819089999E-03   9.138156766530001E-03
   9.369491386080000E-03   9.606682269400001E-03   9.849877668520000E-03
   1.009922958850000E-02   1.035489388240000E-02   1.061703034860000E-02
   1.088580283120000E-02   1.116137932150000E-02   1.144393206380000E-02
   1.173363766290000E-02   1.203067719420000E-02   1.233523631700000E-02
   1.264750539070000E-02   1.296767959360000E-02   1.329595904510000E-02
   1.363254893040000E-02   1.397765962930000E-02   1.433150684710000E-02
   1.469431174980000E-02   1.506630110250000E-02   1.544770741040000E-02
   1.583876906490000E-02   1.623973049240000E-02   1.665084230670000E-02
   1.707236146620000E-02   1.750455143390000E-02   1.794768234290000E-02
   1.840203116410000E-02   1.886788188060000E-02   1.934552566410000E-02
   1.983526105750000E-02   2.033739416140000E-02   2.085223882540000E-02
   2.138011684410000E-02   2.192135815850000E-02   2.247630106190000E-02
   2.304529241190000E-02   2.362868784650000E-02   2.422685200680000E-02
   2.484015876490000E-02   2.546899145750000E-02   2.611374312550000E-02
   2.677481675970000E-02   2.745262555260000E-02   2.814759315680000E-02
   2.886015394970000E-02   2.959075330490000E-02   3.033984787090000E-02
   3.110790585610000E-02   3.189540732170000E-02   3.270284448180000E-02
   3.353072201100000E-02   3.437955735960000E-02   3.524988107740000E-02
   3.614223714500000E-02   3.705718331400000E-02   3.799529145550000E-02
   3.895714791770000E-02   3.994335389210000E-02   4.095452578970000E-02
   4.199129562570000E-02   4.305431141510000E-02   4.414423757730000E-02
   4.526175535170000E-02   4.640756322320000E-02   4.758237735900000E-02
   4.878693205630000E-02   5.002198020100000E-02   5.128829373830000E-02
   5.258666415540000E-02   5.391790297610000E-02   5.528284226800000E-02
   5.668233516260000E-02   5.811725638850000E-02   5.958850281810000E-02
   6.109699402850000E-02   6.264367287560001E-02   6.422950608420000E-02
   6.585548485160000E-02   6.752262546740000E-02   6.923196994890000E-02
   7.098458669190000E-02   7.278157113900000E-02   7.462404646400000E-02
   7.651316427389999E-02   7.845010532879999E-02   8.043608028000000E-02
   8.247233042640000E-02   8.456012849070001E-02   8.670077941470000E-02
   8.889562117470000E-02   9.114602561850001E-02   9.345339932200000E-02
   9.581918446890000E-02   9.824485975190000E-02   1.007319412970000E-01
   1.032819836110000E-01   1.058965805540000E-01   1.085773663340000E-01
   1.113260165280000E-01   1.141442491340000E-01   1.170338256370000E-01
   1.199965521180000E-01   1.230342803770000E-01   1.261489090930000E-01
   1.293423850110000E-01   1.326167041560000E-01   1.359739130850000E-01
   1.394161101620000E-01   1.429454468740000E-01   1.465641291690000E-01
   1.502744188430000E-01   1.540786349480000E-01   1.579791552410000E-01
   1.619784176760000E-01   1.660789219220000E-01   1.702832309270000E-01
   1.745939725200000E-01   1.790138410570000E-01   1.835455990990000E-01
   1.881920791410000E-01   1.929561853860000E-01   1.978408955550000E-01
   2.028492627500000E-01   2.079844173640000E-01   2.132495690370000E-01
   2.186480086580000E-01   2.241831104300000E-01   2.298583339690000E-01
   2.356772264770000E-01   2.416434249500000E-01   2.477606584560000E-01
   2.540327504660000E-01   2.604636212400000E-01   2.670572902840000E-01
   2.738178788540000E-01   2.807496125390000E-01   2.878568238970000E-01
   2.951439551670000E-01   3.026155610440000E-01   3.102763115240000E-01
   3.181309948260000E-01   3.261845203820000E-01   3.344419219080000E-01
   3.429083605490000E-01   3.515891281050000E-01   3.604896503380000E-01
   3.696154903640000E-01   3.789723521290000E-01   3.885660839790000E-01
   3.984026823060000E-01   4.084882953050000E-01   4.188292268130000E-01
   4.294319402490000E-01   4.403030626530000E-01   4.514493888310000E-01
   4.628778856000000E-01   4.745956961410000E-01   4.866101444690000E-01
   4.989287400040000E-01   5.115591822700000E-01   5.245093657050000E-01
   5.377873845930000E-01   5.514015381300000E-01   5.653603356050000E-01
   5.796725017200000E-01   5.943469820460000E-01   6.093929486090000E-01
   6.248198056290000E-01   6.406371953950000E-01   6.568550042880000E-01
   6.734833689680000E-01   6.905326827050000E-01   7.080136018730000E-01
   7.259370526170000E-01   7.443142376770000E-01   7.631566433910000E-01
   7.824760468770000E-01   8.022845233910000E-01   8.225944538750000E-01
   8.434185326980000E-01   8.647697755850000E-01   8.866615277590000E-01
   9.091074722790000E-01   9.321216385890000E-01   9.557184112929999E-01
   9.799125391420000E-01   1.004719144250000E+00   1.030153731560000E+00
   1.056232198520000E+00   1.082970845000000E+00   1.110386383550000E+00
   1.138495949760000E+00   1.167317113020000E+00   1.196867887510000E+00
   1.227166743410000E+00   1.258232618500000E+00   1.290084929970000E+00
   1.322743586540000E+00   1.356229000930000E+00   1.390562102630000E+00
   1.425764350930000E+00   1.461857748390000E+00   1.498864854560000E+00
   1.536808800090000E+00   1.575713301160000E+00   1.615602674370000E+00
   1.656501851880000E+00   1.698436396980000E+00   1.741432520160000E+00
   1.785517095370000E+00   1.830717676920000E+00   1.877062516630000E+00
   1.924580581550000E+00   1.973301572010000E+00   2.023255940220000E+00
   2.074474909280000E+00   2.126990492710000E+00   2.180835514470000E+00
   2.236043629440000E+00   2.292649344500000E+00   2.350688040050000E+00
   2.410195992180000E+00   2.471210395290000E+00   2.533769385370000E+00
   2.597912063820000E+00   2.663678521910000E+00   2.731109865810000E+00
   2.800248242310000E+00   2.871136865140000E+00   2.943820042000000E+00
   3.018343202250000E+00   3.094752925270000E+00   3.173096969650000E+00
   3.253424302950000E+00   3.335785132380000E+00   3.420230936130000E+00
   3.506814495580000E+00   3.595589928270000E+00   3.686612721740000E+00
   3.779939768200000E+00   3.875629400080000E+00   3.973741426530000E+00
   4.074337170760000E+00   4.177479508370000E+00   4.283232906700000E+00
   4.391663465040000E+00   4.502838956040000E+00   4.616828868000000E+00
   4.733704448310000E+00   4.853538748030000E+00   4.976406667480000E+00
   5.102385003130000E+00   5.231552495520000E+00   5.363989878560000E+00
   5.499779929910000E+00   5.639007522770000E+00   5.781759678930000E+00
   5.928125623120000E+00   6.078196838830000E+00   6.232067125460000E+00
   6.389832656940000E+00   6.551592041860000E+00   6.717446385100000E+00
   6.887499351040000E+00   7.061857228300000E+00   7.240628996240000E+00
   7.423926393030000E+00   7.611863985520000E+00   7.804559240810000E+00
   8.002132599710000E+00   8.204707552000000E+00   8.412410713630001E+00
   8.625371905820000E+00   8.843724236270001E+00   9.067604182269999E+00
   9.297151676089999E+00   9.532510192389999E+00   9.773826837890001E+00
   1.002125244340000E+01   1.027494165780000E+01   1.053505304540000E+01
   1.080174918400000E+01   1.107519676760000E+01   1.135556670970000E+01
   1.164303425060000E+01   1.193777906700000E+01   1.223998538400000E+01
   1.254984209030000E+01   1.286754285640000E+01   1.319328625580000E+01
   1.352727588850000E+01   1.386972050910000E+01   1.422083415650000E+01
   1.458083628820000E+01   1.494995191730000E+01   1.532841175300000E+01
   1.571645234500000E+01   1.611431623140000E+01   1.652225209010000E+01
   1.694051489420000E+01   1.736936607150000E+01   1.780907366810000E+01
   1.825991251560000E+01   1.872216440270000E+01   1.919611825210000E+01
   1.968207030040000E+01   2.018032428330000E+01   2.069119162580000E+01
   2.121499163670000E+01   2.175205170800000E+01   2.230270751970000E+01
   2.286730324970000E+01   2.344619178860000E+01   2.403973496060000E+01
   2.464830374960000E+01   2.527227853080000E+01   2.591204930880000E+01
   2.656801596120000E+01   2.724058848840000E+01   2.793018727030000E+01
   2.863724332840000E+01   2.936219859580000E+01   3.010550619320000E+01
   3.086763071200000E+01   3.164904850480000E+01   3.245024798330000E+01
   3.327172992310000E+01   3.411400777730000E+01   3.497760799680000E+01
   3.586307036000000E+01   3.677094830960000E+01   3.770180929890000E+01
   3.865623514640000E+01   3.963482239920000E+01   4.063818270630000E+01
   4.166694320050000E+01   4.272174689060000E+01   4.380325306320000E+01
   4.491213769500000E+01   4.604909387480000E+01   4.721483223740000E+01
   4.841008140710000E+01   4.963558845360000E+01   5.089211935860000E+01
   5.218045949500000E+01   5.350141411720000E+01   5.485580886490000E+01
   5.624449027890000E+01   5.766832633020000E+01   5.912820696280000E+01
   6.062504464950000E+01   6.215977496270000E+01   6.373335715870000E+01
   6.534677477770001E+01   6.700103625820000E+01   6.869717556740000E+01
   7.043625284770000E+01   7.221935507889999E+01   7.404759675800000E+01
   7.592212059550000E+01   7.784409822990000E+01   7.981473095980000E+01
   8.183525049479999E+01   8.390691972530000E+01   8.603103351199999E+01
   8.820891949529999E+01   9.044193892470000E+01   9.273148751020000E+01
   9.507899629400001E+01   9.748593254559999E+01   9.995380067850000E+01
   1.024841431910000E+02   1.050785416280000E+02   1.077386175750000E+02
   1.104660336650000E+02   1.132624946230000E+02   1.161297483260000E+02
   1.190695869020000E+02   1.220838478470000E+02   1.251744151700000E+02
   1.283432205780000E+02   1.315922446760000E+02   1.349235182110000E+02
   1.383391233380000E+02   1.418411949190000E+02   1.454319218650000E+02
   1.491135484960000E+02   1.528883759490000E+02   1.567587636140000E+02
   1.607271306100000E+02   1.647959572940000E+02   1.689677868160000E+02
   1.732452267050000E+02   1.776309505000000E+02   1.821276994220000E+02
   1.867382840850000E+02   1.914655862540000E+02   1.963125606470000E+02
   2.012822367810000E+02   2.063777208660000E+02
    </PP_R>
    <PP_RAB>
   1.066193116500000E-09   1.093183923750000E-09   1.120858006530000E-09
   1.149232662060000E-09   1.178325625410000E-09   1.208155080630000E-09
   1.238739672110000E-09   1.270098516210000E-09   1.302251213230000E-09
   1.335217859640000E-09   1.369019060680000E-09   1.403675943210000E-09
   1.439210168890000E-09   1.475643947770000E-09   1.513000052160000E-09
   1.551301830830000E-09   1.590573223650000E-09   1.630838776510000E-09
   1.672123656690000E-09   1.714453668590000E-09   1.757855269850000E-09
   1.802355587870000E-09   1.847982436800000E-09   1.894764334920000E-09
   1.942730522420000E-09   1.991910979740000E-09   2.042336446270000E-09
   2.094038439560000E-09   2.147049275040000E-09   2.201402086210000E-09
   2.257130845340000E-09   2.314270384730000E-09   2.372856418450000E-09
   2.432925564670000E-09   2.494515368570000E-09   2.557664325770000E-09
   2.622411906440000E-09   2.688798579910000E-09   2.756865840030000E-09
   2.826656231040000E-09   2.898213374210000E-09   2.971581995090000E-09
   3.046807951440000E-09   3.123938261940000E-09   3.203021135560000E-09
   3.284106001650000E-09   3.367243540890000E-09   3.452485716960000E-09
   3.539885809000000E-09   3.629498444900000E-09   3.721379635470000E-09
   3.815586809460000E-09   3.912178849410000E-09   4.011216128500000E-09
   4.112760548240000E-09   4.216875577210000E-09   4.323626290680000E-09
   4.433079411330000E-09   4.545303350930000E-09   4.660368253080000E-09
   4.778346037090000E-09   4.899310442930000E-09   5.023337077280000E-09
   5.150503460820000E-09   5.280889076690000E-09   5.414575420150000E-09
   5.551646049500000E-09   5.692186638350000E-09   5.836285029150000E-09
   5.984031288070000E-09   6.135517761350000E-09   6.290839132960000E-09
   6.450092483810000E-09   6.613377352430000E-09   6.780795797180000E-09
   6.952452460040000E-09   7.128454632010000E-09   7.308912320170000E-09
   7.493938316460000E-09   7.683648268140000E-09   7.878160750119999E-09
   8.077597339020001E-09   8.282082689200000E-09   8.491744610670000E-09
   8.706714148950001E-09   8.927125667010000E-09   9.153116929200000E-09
   9.384829187440000E-09   9.622407269420001E-09   9.865999669180000E-09
   1.011575863990000E-08   1.037184028910000E-08   1.063440467600000E-08
   1.090361591210000E-08   1.117964226310000E-08   1.146265625440000E-08
   1.175283477900000E-08   1.205035920790000E-08   1.235541550370000E-08
   1.266819433630000E-08   1.298889120270000E-08   1.331770654900000E-08
   1.365484589540000E-08   1.400051996500000E-08   1.435494481530000E-08
   1.471834197340000E-08   1.509093857440000E-08   1.547296750320000E-08
   1.586466754040000E-08   1.626628351130000E-08   1.667806643890000E-08
   1.710027370090000E-08   1.753316919060000E-08   1.797702348190000E-08
   1.843211399800000E-08   1.889872518540000E-08   1.937714869120000E-08
   1.986768354570000E-08   2.037063634920000E-08   2.088632146360000E-08
   2.141506120870000E-08   2.195718606430000E-08   2.251303487580000E-08
   2.308295506710000E-08   2.366730285670000E-08   2.426644348100000E-08
   2.488075142240000E-08   2.551061064340000E-08   2.615641482650000E-08
   2.681856762030000E-08   2.749748289190000E-08   2.819358498540000E-08
   2.890730898740000E-08   2.963910099840000E-08   3.038941841240000E-08
   3.115873020220000E-08   3.194751721270000E-08   3.275627246140000E-08
   3.358550144670000E-08   3.443572246360000E-08   3.530746692820000E-08
   3.620127970890000E-08   3.711771946780000E-08   3.805735900970000E-08
   3.902078563990000E-08   4.000860153140000E-08   4.102142410110000E-08
   4.205988639630000E-08   4.312463748970000E-08   4.421634288530000E-08
   4.533568493460000E-08   4.648336326280000E-08   4.766009520620000E-08
   4.886661626050000E-08   5.010368054080000E-08   5.137206125240000E-08
   5.267255117460000E-08   5.400596315590000E-08   5.537313062220000E-08
   5.677490809770000E-08   5.821217173900000E-08   5.968581988259999E-08
   6.119677360649999E-08   6.274597730600000E-08   6.433439928400000E-08
   6.596303235570000E-08   6.763289446990000E-08   6.934502934490000E-08
   7.110050712050000E-08   7.290042502760000E-08   7.474590807350000E-08
   7.663810974510000E-08   7.857821273000000E-08   8.056742965590001E-08
   8.260700384800000E-08   8.469821010650000E-08   8.684235550360001E-08
   8.904078019980000E-08   9.129485828209999E-08   9.360599862280000E-08
   9.597564575969999E-08   9.840528079960000E-08   1.008964223430000E-07
   1.034506274350000E-07   1.060694925370000E-07   1.087546545250000E-07
   1.115077917120000E-07   1.143306248980000E-07   1.172249184470000E-07
   1.201924813860000E-07   1.232351685390000E-07   1.263548816830000E-07
   1.295535707420000E-07   1.328332349990000E-07   1.361959243530000E-07
   1.396437405930000E-07   1.431788387160000E-07   1.468034282750000E-07
   1.505197747550000E-07   1.543302009950000E-07   1.582370886330000E-07
   1.622428796030000E-07   1.663500776550000E-07   1.705612499200000E-07
   1.748790285180000E-07   1.793061122030000E-07   1.838452680440000E-07
   1.884993331620000E-07   1.932712165000000E-07   1.981639006390000E-07
   2.031804436680000E-07   2.083239810870000E-07   2.135977277770000E-07
   2.190049799990000E-07   2.245491174630000E-07   2.302336054360000E-07
   2.360619969060000E-07   2.420379348090000E-07   2.481651543000000E-07
   2.544474850910000E-07   2.608888538430000E-07   2.674932866220000E-07
   2.742649114120000E-07   2.812079607000000E-07   2.883267741180000E-07
   2.956258011550000E-07   3.031096039410000E-07   3.107828600970000E-07
   3.186503656570000E-07   3.267170380690000E-07   3.349879192650000E-07
   3.434681788160000E-07   3.521631171590000E-07   3.610781689140000E-07
   3.702189062790000E-07   3.795910425120000E-07   3.892004355030000E-07
   3.990530914360000E-07   4.091551685410000E-07   4.195129809460000E-07
   4.301330026200000E-07   4.410218714230000E-07   4.521863932520000E-07
   4.636335462970000E-07   4.753704854000000E-07   4.874045465320000E-07
   4.997432513720000E-07   5.123943120110000E-07   5.253656357760000E-07
   5.386653301650001E-07   5.523017079200000E-07   5.662832922220000E-07
   5.806188220160000E-07   5.953172574740000E-07   6.103877855970000E-07
   6.258398259560000E-07   6.416830365790000E-07   6.579273199890000E-07
   6.745828293910000E-07   6.916599750200000E-07   7.091694306500000E-07
   7.271221402590000E-07   7.455293248760000E-07   7.644024895890000E-07
   7.837534307420000E-07   8.035942433030000E-07   8.239373284250000E-07
   8.447954011990000E-07   8.661814985990000E-07   8.881089876320000E-07
   9.105915736920000E-07   9.336433091290000E-07   9.572786020259999E-07
   9.815122252120001E-07   1.006359325490000E-06   1.031835433110000E-06
   1.057956471460000E-06   1.084738767040000E-06   1.112199059670000E-06
   1.140354512910000E-06   1.169222724840000E-06   1.198821739040000E-06