<UPF version="2.0.1">
  <PP_INFO>
    Generated by new atomic code, or converted to UPF format
    Author: 
    Generation date: 
    Pseudopotential type: US
    Element: In
    Functional:  SLA  PZ   NOGX NOGC
    Suggested minimum cutoff for wavefunctions:   0. Ry
    Suggested minimum cutoff for charge density:   0. Ry
    The Pseudo was generated with a Non-Relativistic Calculation
    L component and cutoff radius for Local Potential:  0   0.0000
    Valence configuration: 
    nl pn  l   occ       Rcut    Rcut US       E pseu
    4D  3  2 10.00      0.000      0.000     0.000000
    5S  1  0  1.50      0.000      0.000     0.000000
    5P  2  1  0.00      0.000      0.000     0.000000
    Generation configuration: not available.
  </PP_INFO>
    <!-- END OF HUMAN READABLE SECTION -->
  <PP_HEADER generated="Generated by new atomic code, or converted to UPF format" author="" date="" comment="" element="In" pseudo_type="US" relativistic="no" is_ultrasoft="true" is_paw="false" is_coulomb="false" has_so="false" has_wfc="false" has_gipaw="false" paw_as_gipaw="false" core_correction="true" functional=" SLA  PZ   NOGX NOGC" z_valence="13.000000000000000" total_psenergy="-131.83686584399999" wfc_cutoff="0.0000000000000000" rho_cutoff="0.0000000000000000" l_max="2" l_max_rho="0" l_local="0" mesh_size="889" number_of_wfc="3" number_of_proj="6"/>
  <PP_MESH>
    <PP_R>
   0.000000000000000E+00   1.167765538010000E-09   2.365093201370000E-09
   3.592731358820000E-09   4.851447324200000E-09   6.142027835940000E-09
   7.465279548880001E-09   8.822029538420001E-09   1.021312581750000E-08
   1.163943786650000E-08   1.310185717690000E-08   1.460129780850000E-08
   1.613869696030000E-08   1.771501555700000E-08   1.933123884890000E-08
   2.098837702830000E-08   2.268746586040000E-08   2.442956733100000E-08
   2.621577031040000E-08   2.804719123350000E-08   2.992497479790000E-08
   3.185029467960000E-08   3.382435426620000E-08   3.584838740910000E-08
   3.792365919500000E-08   4.005146673630000E-08   4.223313998190000E-08
   4.447004254870000E-08   4.676357257350000E-08   4.911516358740000E-08
   5.152628541120000E-08   5.399844507460000E-08   5.653318775780000E-08
   5.913209775750000E-08   6.179679947710000E-08   6.452895844190000E-08
   6.733028234020000E-08   7.020252209060000E-08   7.314747293640000E-08
   7.616697556790000E-08   7.926291727240000E-08   8.243723311430000E-08
   8.569190714429999E-08   8.902897363960000E-08   9.245051837550000E-08
   9.595867992870001E-08   9.955565101450000E-08   1.032436798570000E-07
   1.070250715940000E-07   1.109021897180000E-07   1.148774575550000E-07
   1.189533597770000E-07   1.231324439550000E-07   1.274173221520000E-07
   1.318106725570000E-07   1.363152411570000E-07   1.409338434540000E-07
   1.456693662250000E-07   1.505247693260000E-07   1.555030875420000E-07
   1.606074324830000E-07   1.658409945310000E-07   1.712070448340000E-07
   1.767089373460000E-07   1.823501109310000E-07   1.881340915050000E-07
   1.940644942440000E-07   2.001450258430000E-07   2.063794868330000E-07
   2.127717739540000E-07   2.193258825940000E-07   2.260459092840000E-07
   2.329360542590000E-07   2.400006240850000E-07   2.472440343480000E-07
   2.546708124140000E-07   2.622856002630000E-07   2.700931573830000E-07
   2.780983637530000E-07   2.863062228870000E-07   2.947218649650000E-07
   3.033505500350000E-07   3.121976713090000E-07   3.212687585230000E-07
   3.305694814040000E-07   3.401056532060000E-07   3.498832343450000E-07
   3.599083361300000E-07   3.701872245750000E-07   3.807263243200000E-07
   3.915322226450000E-07   4.026116735890000E-07   4.139716021680000E-07
   4.256191087090000E-07   4.375614732810000E-07   4.498061602520000E-07
   4.623608229490000E-07   4.752333084460000E-07   4.884316624650001E-07
   5.019641344060000E-07   5.158391825050000E-07   5.300654791200001E-07
   5.446519161480000E-07   5.596076105870000E-07   5.749419102330000E-07
   5.906643995230000E-07   6.067849055250000E-07   6.233135040780000E-07
   6.402605260970000E-07   6.576365640200000E-07   6.754524784370000E-07
   6.937194048760000E-07   7.124487607580000E-07   7.316522525420000E-07
   7.513418830350000E-07   7.715299588970000E-07   7.922290983330000E-07
   8.134522389780000E-07   8.352126459870000E-07   8.575239203220000E-07
   8.804000072550000E-07   9.038552050870000E-07   9.279041740780000E-07
   9.525619456180000E-07   9.778439316160000E-07   1.003765934140000E-06
   1.030344155280000E-06   1.057595207290000E-06   1.085536122960000E-06
   1.114184366290000E-06   1.143557843340000E-06   1.173674913510000E-06
   1.204554400940000E-06   1.236215606320000E-06   1.268678318930000E-06
   1.301962829010000E-06   1.336089940490000E-06   1.371080983900000E-06
   1.406957829790000E-06   1.443742902370000E-06   1.481459193480000E-06
   1.520130277060000E-06   1.559780323770000E-06   1.600434116200000E-06
   1.642117064280000E-06   1.684855221210000E-06   1.728675299740000E-06
   1.773604688840000E-06   1.819671470840000E-06   1.866904438980000E-06
   1.915333115400000E-06   1.964987769590000E-06   2.015899437350000E-06
   2.068099940110000E-06   2.121621904890000E-06   2.176498784650000E-06
   2.232764879250000E-06   2.290455356810000E-06   2.349606275760000E-06
   2.410254607350000E-06   2.472438258770000E-06   2.536196096820000E-06
   2.601567972220000E-06   2.668594744530000E-06   2.737318307650000E-06
   2.807781616060000E-06   2.880028711620000E-06   2.954104751110000E-06
   3.030056034460000E-06   3.107930033710000E-06   3.187775422630000E-06
   3.269642107190000E-06   3.353581256750000E-06   3.439645335990000E-06
   3.527888137770000E-06   3.618364816710000E-06   3.711131923690000E-06
   3.806247441150000E-06   3.903770819410000E-06   4.003763013740000E-06
   4.106286522520000E-06   4.211405426290000E-06   4.319185427770000E-06
   4.429693892980000E-06   4.542999893300000E-06   4.659174248680000E-06
   4.778289571870000E-06   4.900420313820000E-06   5.025642810220000E-06
   5.154035329220000E-06   5.285678120300000E-06   5.420653464510000E-06
   5.559045725820000E-06   5.700941403910000E-06   5.846429188190000E-06
   5.995600013260000E-06   6.148547115750000E-06   6.305366092580000E-06
   6.466154960700000E-06   6.631014218400000E-06   6.800046908070000E-06
   6.973358680660000E-06   7.151057861660000E-06   7.333255518840000E-06
   7.520065531680000E-06   7.711604662499999E-06   7.907992629510000E-06
   8.109352181570001E-06   8.315809174960001E-06   8.527492652020000E-06
   8.744534921810000E-06   8.967071642820000E-06   9.195241907750000E-06
   9.429188330440001E-06   9.669057135010000E-06   9.914998247270000E-06
   1.016716538840000E-05   1.042571617120000E-05   1.069081219810000E-05
   1.096261916300000E-05   1.124130695390000E-05   1.152704975980000E-05
   1.182002617930000E-05   1.212041933220000E-05   1.242841697390000E-05
   1.274421161310000E-05   1.306800063160000E-05   1.339998640810000E-05
   1.374037644460000E-05   1.408938349590000E-05   1.444722570280000E-05
   1.481412672820000E-05   1.519031589730000E-05   1.557602834060000E-05
   1.597150514090000E-05   1.637699348400000E-05   1.679274681340000E-05
   1.721902498850000E-05   1.765609444690000E-05   1.810422837140000E-05
   1.856370686020000E-05   1.903481710220000E-05   1.951785355690000E-05
   2.001311813760000E-05   2.052092040080000E-05   2.104157773960000E-05
   2.157541558160000E-05   2.212276759300000E-05   2.268397588650000E-05
   2.325939123560000E-05   2.384937329360000E-05   2.445429081850000E-05
   2.507452190340000E-05   2.571045421300000E-05   2.636248522570000E-05
   2.703102248200000E-05   2.771648383960000E-05   2.841929773410000E-05
   2.913990344700000E-05   2.987875138030000E-05   3.063630333820000E-05
   3.141303281510000E-05   3.220942529240000E-05   3.302597854130000E-05
   3.386320293400000E-05   3.472162176320000E-05   3.560177156850000E-05
   3.650420247210000E-05   3.742947852290000E-05   3.837817804840000E-05
   3.935089401670000E-05   4.034823440710000E-05   4.137082258960000E-05
   4.241929771520000E-05   4.349431511490000E-05   4.459654670970000E-05
   4.572668143020000E-05   4.688542564730000E-05   4.807350361390000E-05
   4.929165791750000E-05   5.054064994410000E-05   5.182126035430000E-05
   5.313428957150000E-05   5.448055828150000E-05   5.586090794620000E-05
   5.727620132890000E-05   5.872732303430000E-05   6.021518006050000E-05
   6.174070236670000E-05   6.330484345390000E-05   6.490858096130001E-05
   6.655291727689999E-05   6.823888016460000E-05   6.996752340590000E-05
   7.173992745930001E-05   7.355720013490000E-05   7.542047728729999E-05
   7.733092352530000E-05   7.928973294019999E-05   8.129812985150000E-05
   8.335736957260000E-05   8.546873919550001E-05   8.763355839480000E-05
   8.985318025310000E-05   9.212899210620000E-05   9.446241641069999E-05
   9.685491163270000E-05   9.930797315960000E-05   1.018231342350000E-04
   1.044019669160000E-04   1.070460830570000E-04   1.097571353160000E-04
   1.125368181910000E-04   1.153868690720000E-04   1.183090693350000E-04
   1.213052454500000E-04   1.243772701250000E-04   1.275270634740000E-04
   1.307565942210000E-04   1.340678809290000E-04   1.374629932590000E-04
   1.409440532660000E-04   1.445132367270000E-04   1.481727744980000E-04
   1.519249539090000E-04   1.557721201930000E-04   1.597166779550000E-04
   1.637610926730000E-04   1.679078922370000E-04   1.721596685320000E-04
   1.765190790550000E-04   1.809888485820000E-04   1.855717708630000E-04
   1.902707103740000E-04   1.950886041050000E-04   2.000284633960000E-04
   2.050933758210000E-04   2.102865071140000E-04   2.156111031520000E-04
   2.210704919800000E-04   2.266680858950000E-04   2.324073835740000E-04
   2.382919722650000E-04   2.443255300290000E-04   2.505118280340000E-04
   2.568547329190000E-04   2.633582092060000E-04   2.700263217780000E-04
   2.768632384240000E-04   2.838732324390000E-04   2.910606852980000E-04
   2.984300893920000E-04   3.059860508380000E-04   3.137332923590000E-04
   3.216766562340000E-04   3.298211073220000E-04   3.381717361700000E-04
   3.467337621950000E-04   3.555125369410000E-04   3.645135474270000E-04
   3.737424195780000E-04   3.832049217400000E-04   3.929069682850000E-04
   4.028546233080000E-04   4.130541044160000E-04   4.235117866180000E-04
   4.342342063060000E-04   4.452280653400000E-04   4.565002352400000E-04
   4.680577614800000E-04   4.799078678900000E-04   4.920579611720000E-04
   5.045156355290000E-04   5.172886774150000E-04   5.303850703950000E-04
   5.438130001420000E-04   5.575808595490000E-04   5.716972539760000E-04
   5.861710066290000E-04   6.010111640760000E-04   6.162270018960000E-04
   6.318280304850000E-04   6.478240009930000E-04   6.642249114220000E-04
   6.810410128760000E-04   6.982828159640000E-04   7.159610973760000E-04
   7.340869066130000E-04   7.526715728950000E-04   7.717267122430000E-04
   7.912642347410000E-04   8.112963519760000E-04   8.318355846730000E-04
   8.528947705210000E-04   8.744870721970000E-04   8.966259855920000E-04
   9.193253482480000E-04   9.425993480060000E-04   9.664625318720000E-04
   9.909298151139999E-04   1.016016490580000E-03   1.041738238260000E-03
   1.068111135080000E-03   1.095151664970000E-03   1.122876729120000E-03
   1.151303656620000E-03   1.180450215210000E-03   1.210334622450000E-03
   1.240975557060000E-03   1.272392170620000E-03   1.304604099540000E-03
   1.337631477320000E-03   1.371494947150000E-03   1.406215674800000E-03
   1.441815361860000E-03   1.478316259280000E-03   1.515741181330000E-03
   1.554113519780000E-03   1.593457258610000E-03   1.633796988920000E-03
   1.675157924380000E-03   1.717565916900000E-03   1.761047472860000E-03
   1.805629769650000E-03   1.851340672650000E-03   1.898208752680000E-03
   1.946263303800000E-03   1.995534361670000E-03   2.046052722310000E-03
   2.097849961340000E-03   2.150958453720000E-03   2.205411393990000E-03
   2.261242817000000E-03   2.318487619210000E-03   2.377181580490000E-03
   2.437361386480000E-03   2.499064651500000E-03   2.562329942120000E-03
   2.627196801190000E-03   2.693705772620000E-03   2.761898426680000E-03
   2.831817385990000E-03   2.903506352190000E-03   2.977010133200000E-03
   3.052374671290000E-03   3.129647071750000E-03   3.208875632330000E-03
   3.290109873480000E-03   3.373400569230000E-03   3.458799778980000E-03
   3.546360880020000E-03   3.636138600890000E-03   3.728189055580000E-03
   3.822569778620000E-03   3.919339761050000E-03   4.018559487240000E-03
   4.120290972760000E-03   4.224597803100000E-03   4.331545173420000E-03
   4.441199929300000E-03   4.553630608550000E-03   4.668907484000000E-03
   4.787102607440000E-03   4.908289854670000E-03   5.032544971680000E-03
   5.159945621950000E-03   5.290571435030000E-03   5.424504056320000E-03
   5.561827198050000E-03   5.702626691670000E-03   5.846990541440000E-03
   5.995008979470000E-03   6.146774522100000E-03   6.302382027730000E-03
   6.461928756120000E-03   6.625514429160000E-03   6.793241293240000E-03
   6.965214183090000E-03   7.141540587380000E-03   7.322330715850000E-03
   7.507697568200000E-03   7.697757004770000E-03   7.892627818880000E-03
   8.092431811130001E-03   8.297293865530001E-03   8.507342027530000E-03
   8.722707584070000E-03   8.943525145619999E-03   9.169932730360000E-03
   9.402071850400000E-03   9.640087600240000E-03   9.884128747470000E-03
   1.013434782580000E-02   1.039090123020000E-02   1.065394931490000E-02
   1.092365649370000E-02   1.120019134210000E-02   1.148372670360000E-02
   1.177443979700000E-02   1.207251232730000E-02   1.237813059970000E-02
   1.269148563540000E-02   1.301277329170000E-02   1.334219438370000E-02
   1.367995481030000E-02   1.402626568290000E-02   1.438134345690000E-02
   1.474541006760000E-02   1.511869306840000E-02   1.550142577340000E-02
   1.589384740290000E-02   1.629620323330000E-02   1.670874475000000E-02
   1.713172980490000E-02   1.756542277750000E-02   1.801009473990000E-02
   1.846602362670000E-02   1.893349440810000E-02   1.941279926880000E-02
   1.990423778980000E-02   2.040811713610000E-02   2.092475224890000E-02
   2.145446604180000E-02   2.199758960320000E-02   2.255446240300000E-02
   2.312543250480000E-02   2.371085678370000E-02   2.431110114860000E-02
   2.492654077210000E-02   2.555756032370000E-02   2.620455421140000E-02
   2.686792682730000E-02   2.754809280100000E-02   2.824547725820000E-02
   2.896051608700000E-02   2.969365621000000E-02   3.044535586350000E-02
   3.121608488440000E-02   3.200632500330000E-02   3.281657014600000E-02
   3.364732674230000E-02   3.449911404180000E-02   3.537246443960000E-02
   3.626792380780000E-02   3.718605183800000E-02   3.812742238990000E-02
   3.909262385070000E-02   4.008225950290000E-02   4.109694790080000E-02
   4.213732325790000E-02   4.320403584250000E-02   4.429775238480000E-02
   4.541915649310000E-02   4.656894908160000E-02   4.774784880810000E-02
   4.895659252320000E-02   5.019593573120000E-02   5.146665306180000E-02
   5.276953875480000E-02   5.410540715620000E-02   5.547509322710000E-02
   5.687945306600000E-02   5.831936444350000E-02   5.979572735110000E-02
   6.130946456360000E-02   6.286152221610000E-02   6.445287039510000E-02
   6.608450374510000E-02   6.775744208990001E-02   6.947273107059999E-02
   7.123144279860000E-02   7.303467652600000E-02   7.488355933240000E-02
   7.677924682999999E-02   7.872292388509999E-02   8.071580535900000E-02
   8.275913686770001E-02   8.485419555970000E-02   8.700229091510001E-02
   8.920476556330000E-02   9.146299612260000E-02   9.377839406080000E-02
   9.615240657680001E-02   9.858651750569999E-02   1.010822482460000E-01
   1.036411587110000E-01   1.062648483030000E-01   1.089549569130000E-01
   1.117131659470000E-01   1.145411993750000E-01   1.174408248100000E-01
   1.204138546120000E-01   1.234621470220000E-01   1.265876073220000E-01
   1.297921890260000E-01   1.330778951020000E-01   1.364467792230000E-01
   1.399009470520000E-01   1.434425575560000E-01   1.470738243570000E-01
   1.507970171140000E-01   1.546144629450000E-01   1.585285478770000E-01
   1.625417183410000E-01   1.666564826990000E-01   1.708754128120000E-01
   1.752011456500000E-01   1.796363849360000E-01   1.841839028390000E-01
   1.888465417060000E-01   1.936272158370000E-01   1.985289133110000E-01
   2.035546978470000E-01   2.087077107240000E-01   2.139911727430000E-01
   2.194083862400000E-01   2.249627371490000E-01   2.306576971210000E-01
   2.364968256920000E-01   2.424837725060000E-01   2.486222795990000E-01
   2.549161837400000E-01   2.613694188230000E-01   2.679860183300000E-01
   2.747701178500000E-01   2.817259576680000E-01   2.888578854090000E-01
   2.961703587600000E-01   3.036679482560000E-01   3.113553401330000E-01
   3.192373392620000E-01   3.273188721500000E-01   3.356049900160000E-01
   3.441008719540000E-01   3.528118281680000E-01   3.617433032880000E-01
   3.709008797780000E-01   3.802902814200000E-01   3.899173768960000E-01
   3.997881834540000E-01   4.099088706710000E-01   4.202857643030000E-01
   4.309253502490000E-01   4.418342785960000E-01   4.530193677780000E-01
   4.644876088410000E-01   4.762461698080000E-01   4.883024001640000E-01
   5.006638354439999E-01   5.133382019490000E-01   5.263334215690000E-01
   5.396576167390000E-01   5.533191155170000E-01   5.673264567820000E-01
   5.816883955800000E-01   5.964139085900000E-01   6.115121997360000E-01
   6.269927059420000E-01   6.428651030290000E-01   6.591393117610000E-01
   6.758255040480000E-01   6.929341093040000E-01   7.104758209649999E-01
   7.284616031700000E-01   7.469026976190000E-01   7.658106305970001E-01
   7.851972201780000E-01   8.050745836099999E-01   8.254551448930000E-01
   8.463516425410000E-01   8.677771375460001E-01   8.897450215390000E-01
   9.122690251630000E-01   9.353632266530000E-01   9.590420606380000E-01
   9.833203271590000E-01   1.008213200920000E+00   1.033736240790000E+00
   1.059905399480000E+00   1.086737033580000E+00   1.114247913730000E+00
   1.142455235130000E+00   1.171376628270000E+00   1.201030169960000E+00
   1.231434394630000E+00   1.262608305920000E+00   1.294571388530000E+00
   1.327343620420000E+00   1.360945485320000E+00   1.395397985470000E+00
   1.430722654820000E+00   1.466941572440000E+00   1.504077376310000E+00
   1.542153277540000E+00   1.581193074790000E+00   1.621221169220000E+00
   1.662262579690000E+00   1.704342958400000E+00   1.747488606980000E+00
   1.791726492850000E+00   1.837084266130000E+00   1.883590276900000E+00
   1.931273592950000E+00   1.980164017890000E+00   2.030292109830000E+00
   2.081689200460000E+00   2.134387414630000E+00   2.188419690440000E+00
   2.243819799830000E+00   2.300622369670000E+00   2.358862903410000E+00
   2.418577803270000E+00   2.479804393030000E+00   2.542580941280000E+00
   2.606946685420000E+00   2.672941856130000E+00   2.740607702540000E+00
   2.809986518010000E+00   2.881121666550000E+00   2.954057609960000E+00
   3.028839935560000E+00   3.105515384740000E+00   3.184131882160000E+00
   3.264738565700000E+00   3.347385817130000E+00   3.432125293700000E+00
   3.519009960340000E+00   3.608094122780000E+00   3.699433461530000E+00
   3.793085066650000E+00   3.889107473430000E+00   3.987560699020000E+00
   4.088506279890000E+00   4.192007310290000E+00   4.298128481760000E+00
   4.406936123480000E+00   4.518498243750000E+00   4.632884572550000E+00
   4.750166605050000E+00   4.870417646330000E+00   4.993712857220000E+00
   5.120129301240000E+00   5.249745992760000E+00   5.382643946460000E+00
   5.518906227870000E+00   5.658618005360000E+00   5.801866603340000E+00
   5.948741556840000E+00   6.099334667480000E+00   6.253740060880000E+00
   6.412054245420000E+00   6.574376172620000E+00   6.740807298970000E+00
   6.911451649340000E+00   7.086415882010000E+00   7.265809355320000E+00
   7.449744196020000E+00   7.638335369390000E+00   7.831700751040000E+00
   8.029961200630000E+00   8.233240637400000E+00   8.441666117610000E+00
   8.655367913970000E+00   8.874479597060001E+00   9.099138118819999E+00
   9.329483898130000E+00   9.565660908610001E+00   9.807816768580000E+00
   1.005610283330000E+01   1.031067428970000E+01   1.057169025320000E+01
   1.083931386730000E+01   1.111371240540000E+01   1.139505737560000E+01
   1.168352462760000E+01   1.197929446290000E+01   1.228255174720000E+01
   1.259348602620000E+01   1.291229164390000E+01   1.323916786430000E+01
   1.357431899560000E+01   1.391795451820000E+01   1.427028921540000E+01
   1.463154330800000E+01   1.500194259150000E+01   1.538171857740000E+01
   1.577110863830000E+01   1.617035615540000E+01   1.657971067160000E+01
   1.699942804670000E+01   1.742977061770000E+01   1.787100736270000E+01
   1.832341406920000E+01   1.878727350590000E+01   1.926287560020000E+01
   1.975051761890000E+01   2.025050435400000E+01   2.076314831350000E+01
   2.128876991670000E+01   2.182769769420000E+01   2.238026849320000E+01
   2.294682768870000E+01   2.352772939840000E+01   2.412333670500000E+01
   2.473402188230000E+01   2.536016662850000E+01   2.600216230430000E+01
   2.666041017810000E+01   2.733532167620000E+01   2.802731864020000E+01
   2.873683359070000E+01   2.946430999770000E+01   3.021020255760000E+01
   3.097497747760000E+01   3.175911276690000E+01   3.256309853550000E+01
   3.338743730070000E+01   3.423264430120000E+01   3.509924781870000E+01
   3.598778950870000E+01   3.689882473870000E+01   3.783292293530000E+01
   3.879066794040000E+01   3.977265837570000E+01   4.077950801720000E+01
   4.181184617880000E+01   4.287031810530000E+01   4.395558537620000E+01
   4.506832631890000E+01   4.620923643270000E+01   4.737902882350000E+01
   4.857843464960000E+01   4.980820357890000E+01   5.106910425670000E+01
   5.236192478720000E+01   5.368747322530000E+01   5.504657808180000E+01
   5.644008884160000E+01   5.786887649420000E+01   5.933383407840000E+01
   6.083587724040000E+01   6.237594480620000E+01   6.395499936790000E+01
   6.557402788620000E+01   6.723404230660000E+01   6.893608019209999E+01
   7.068120537180000E+01   7.247050860580001E+01   7.430510826680000E+01
   7.618615103930000E+01   7.811481263630000E+01   8.009229853410000E+01
   8.211984472579999E+01   8.419871849360000E+01   8.633021920140000E+01
   8.851567910660000E+01   9.075646419260001E+01   9.305397502320000E+01
   9.540964761740000E+01   9.782495434720001E+01   1.003014048580000E+02
   1.028405470120000E+02   1.054439678550000E+02   1.081132946110000E+02
   1.108501956960000E+02   1.136563817610000E+02   1.165336067650000E+02
   1.194836690670000E+02   1.225084125510000E+02   1.256097277810000E+02
   1.287895531800000E+02   1.320498762420000E+02   1.353927347760000E+02
   1.388202181760000E+02   1.423344687320000E+02   1.459376829630000E+02
   1.496321129980000E+02   1.534200679740000E+02   1.573039154870000E+02
   1.612860830670000E+02   1.653690597000000E+02   1.695553973790000E+02
   1.738477127000000E+02   1.782486885010000E+02   1.827610755350000E+02
   1.873876941910000E+02   1.921314362550000E+02   1.969952667220000E+02
   2.019822256430000E+02
    </PP_R>
    <PP_RAB>
   1.153229289280000E-09   1.182423427730000E-09   1.212356619310000E-09
   1.243047573250000E-09   1.274515472380000E-09   1.306779985170000E-09
   1.339861278000000E-09   1.373780027740000E-09   1.408557434710000E-09
   1.444215235940000E-09   1.480775718700000E-09   1.518261734490000E-09
   1.556696713280000E-09   1.596104678200000E-09   1.636510260500000E-09
   1.677938714980000E-09   1.720415935790000E-09   1.763968472550000E-09
   1.808623547040000E-09   1.854409070110000E-09   1.901353659220000E-09
   1.949486656270000E-09   1.998838145930000E-09   2.049438974500000E-09
   2.101320769150000E-09   2.154515957680000E-09   2.209057788820000E-09
   2.264980352990000E-09   2.322318603610000E-09   2.381108378960000E-09
   2.441386424560000E-09   2.503190416140000E-09   2.566558983220000E-09
   2.631531733210000E-09   2.698149276200000E-09   2.766453250320000E-09
   2.836486347780000E-09   2.908292341540000E-09   2.981916112690000E-09
   3.057403678470000E-09   3.134802221090000E-09   3.214160117130000E-09
   3.295526967880000E-09   3.378953630270000E-09   3.464492248660000E-09
   3.552196287490000E-09   3.642120564640000E-09   3.734321285700000E-09
   3.828856079120000E-09   3.925784032230000E-09   4.025165728160000E-09
   4.127063283700000E-09   4.231540388140000E-09   4.338662343070000E-09
   4.448496103200000E-09   4.561110318210000E-09   4.676575375640000E-09
   4.794963444910000E-09   4.916348522430000E-09   5.040806477820000E-09
   5.168415101340000E-09   5.299254152550000E-09   5.433405410110000E-09
   5.570952722930000E-09   5.711982062550000E-09   5.856581576890000E-09
   6.004841645370000E-09   6.156854935360000E-09   6.312716460100000E-09
   6.472523638120000E-09   6.636376354120000E-09   6.804377021370000E-09
   6.976630645760000E-09   7.153244891410000E-09   7.334330147970000E-09
   7.519999599640000E-09   7.710369295840001E-09   7.905558223860000E-09
   8.105688383110001E-09   8.310884861460000E-09   8.521275913390000E-09
   8.736993040159999E-09   8.958171071990000E-09   9.184948252359999E-09
   9.417466324379999E-09   9.655870619410001E-09   9.900310147910001E-09
   1.015093769250000E-08   1.040790990370000E-08   1.067138739730000E-08
   1.094153485540000E-08   1.121852112900000E-08   1.150251934350000E-08
   1.179370700700000E-08   1.209226612130000E-08   1.239838329560000E-08
   1.271224986300000E-08   1.303406200040000E-08   1.336402085090000E-08
   1.370233264940000E-08   1.404920885190000E-08   1.440486626730000E-08
   1.476952719300000E-08   1.514341955390000E-08   1.552677704510000E-08
   1.591983927740000E-08   1.632285192740000E-08   1.673606689120000E-08
   1.715974244170000E-08   1.759414338980000E-08   1.803954125020000E-08
   1.849621441120000E-08   1.896444830820000E-08   1.944453560280000E-08
   1.993677636520000E-08   2.044147826170000E-08   2.095895674760000E-08
   2.148953526370000E-08   2.203354543890000E-08   2.259132729730000E-08
   2.316322947070000E-08   2.374960941640000E-08   2.435083364120000E-08
   2.496727792970000E-08   2.559932757970000E-08   2.624737764270000E-08
   2.691183317120000E-08   2.759310947140000E-08   2.829163236340000E-08
   2.900783844650000E-08   2.974217537290000E-08   3.049510212710000E-08
   3.126708931290000E-08   3.205861944730000E-08   3.287018726240000E-08
   3.370230001460000E-08   3.455547780150000E-08   3.543025388680000E-08
   3.632717503410000E-08   3.724680184840000E-08   3.818970912640000E-08
   3.915648621570000E-08   4.014773738360000E-08   4.116408219420000E-08
   4.220615589620000E-08   4.327460981960000E-08   4.437011178290000E-08
   4.549334651030000E-08   4.664501606030000E-08   4.782584026370000E-08
   4.903655717420000E-08   5.027792352910000E-08   5.155071522300000E-08
   5.285572779200000E-08   5.419377691150000E-08   5.556569890560000E-08
   5.697235127050000E-08   5.841461320940000E-08   5.989338618319999E-08
   6.140959447310000E-08   6.296418575849999E-08   6.455813170970000E-08
   6.619242859480000E-08   6.786809790250000E-08   6.958618698060000E-08
   7.134776969090001E-08   7.315394707970000E-08   7.500584806689999E-08
   7.690463015080000E-08   7.885148013190000E-08   8.084761485500001E-08
   8.289428196910000E-08   8.499276070799999E-08   8.714436268900000E-08
   8.935043273349999E-08   9.161234970710000E-08   9.393152738140000E-08
   9.630941531810000E-08   9.874749977449999E-08   1.012473046330000E-07
   1.038103923520000E-07   1.064383649460000E-07   1.091328649840000E-07
   1.118955766140000E-07   1.147282266220000E-07   1.176325855060000E-07
   1.206104685860000E-07   1.236637371350000E-07   1.267942995450000E-07
   1.300041125200000E-07   1.332951822970000E-07   1.366695659020000E-07
   1.401293724350000E-07   1.436767643870000E-07   1.473139589940000E-07
   1.510432296210000E-07   1.548669071830000E-07   1.587873816040000E-07
   1.628071033070000E-07   1.669285847490000E-07   1.711544019910000E-07
   1.754871963060000E-07   1.799296758310000E-07   1.844846172600000E-07
   1.891548675810000E-07   1.939433458520000E-07   1.988530450270000E-07
   2.038870338280000E-07   2.090484586630000E-07   2.143405455900000E-07
   2.197666023350000E-07   2.253300203600000E-07   2.310342769830000E-07
   2.368829375500000E-07   2.428796576640000E-07   2.490281854710000E-07
   2.553323640000000E-07   2.617961335690000E-07   2.684235342430000E-07
   2.752187083640000E-07   2.821859031370000E-07   2.893294732850000E-07
   2.966538837720000E-07   3.041637125940000E-07   3.118636536380000E-07
   3.197585196170000E-07   3.278532450790000E-07   3.361528894930000E-07
   3.446626404050000E-07   3.533878166870000E-07   3.623338718580000E-07
   3.715063974950000E-07   3.809111267230000E-07   3.905539378050000E-07
   4.004408578120000E-07   4.105780663900000E-07   4.209718996250000E-07
   4.316288540020000E-07   4.425555904630000E-07   4.537589385740000E-07
   4.652459007930000E-07   4.770236568450000E-07   4.890995682110000E-07
   5.014811827290000E-07   5.141762393100000E-07   5.271926727790000E-07
   5.405386188300000E-07   5.542224191140000E-07   5.682526264510000E-07
   5.826380101780000E-07   5.973875616280000E-07   6.125104997510000E-07
   6.280162768740000E-07   6.439145846150000E-07   6.602153599320000E-07
   6.769287913399999E-07   6.940653252800000E-07   7.116356726410000E-07
   7.296508154630000E-07   7.481220137970000E-07   7.670608127440000E-07
   7.864790496680000E-07   8.063888616000000E-07   8.268026928210000E-07
   8.477333026400000E-07   8.691937733690000E-07   8.911975185010000E-07
   9.137582910920000E-07   9.368901923620000E-07   9.606076804990001E-07
   9.849255797079999E-07   1.009859089470000E-06   1.035423794030000E-06
   1.061635672170000E-06   1.088511107160000E-06   1.116066897030000E-06
   1.144320265040000E-06   1.173288870470000E-06   1.202990819640000E-06
   1.233444677230000E-06   1.264669477890000E-06   1.296684738150000E-06
   1.329510468580000E-06   1.363167186330000E-06   1.397675927940000E-06