<UPF version="2.0.1">
  <PP_INFO>
    Generated by new atomic code, or converted to UPF format
    Author: 
    Generation date: 
    Pseudopotential type: US
    Element: Ir
    Functional: SLA  PZ   NOGX NOGC
    Suggested minimum cutoff for wavefunctions:   0. Ry
    Suggested minimum cutoff for charge density:   0. Ry
    The Pseudo was generated with a Non-Relativistic Calculation
    L component and cutoff radius for Local Potential:  0   0.0000
    Valence configuration: 
    nl pn  l   occ       Rcut    Rcut US       E pseu
    5P  2  1  6.00      0.000      0.000     0.000000
    5D  3  2  8.50      0.000      0.000     0.000000
    6S  1  0  0.00      0.000      0.000     0.000000
    6P  2  1  0.00      0.000      0.000     0.000000
    Generation configuration: not available.
  </PP_INFO>
    <!-- END OF HUMAN READABLE SECTION -->
  <PP_HEADER generated="Generated by new atomic code, or converted to UPF format" author="" date="" comment="" element="Ir" pseudo_type="US" relativistic="no" is_ultrasoft="true" is_paw="false" is_coulomb="false" has_so="false" has_wfc="false" has_gipaw="false" paw_as_gipaw="false" core_correction="true" functional="SLA  PZ   NOGX NOGC" z_valence="15.000000000000000" total_psenergy="-180.85141475600000" wfc_cutoff="0.0000000000000000" rho_cutoff="0.0000000000000000" l_max="2" l_max_rho="0" l_local="0" mesh_size="983" number_of_wfc="4" number_of_proj="7"/>
  <PP_MESH>
    <PP_R>
   0.000000000000000E+00   1.990310335890000E-07   4.014070484860000E-07
   6.071842615520000E-07   8.164198344460000E-07   1.029171889510000E-06
   1.245499525900000E-06   1.465462836010000E-06   1.689122922190000E-06
   1.916541913680000E-06   2.147782983870000E-06   2.382910367880000E-06
   2.621989380390000E-06   2.865086433780000E-06   3.112269056560000E-06
   3.363605912160000E-06   3.619166818000000E-06   3.879022764860000E-06
   4.143245936610000E-06   4.411909730280000E-06   4.685088776430000E-06
   4.962858959890000E-06   5.245297440820000E-06   5.532482676170000E-06
   5.824494441470000E-06   6.121413852980000E-06   6.423323390210000E-06
   6.730306918870000E-06   7.042449714140000E-06   7.359838484360000E-06
   7.682561395100000E-06   8.010708093710001E-06   8.344369734149999E-06
   8.683639002359999E-06   9.028610141980001E-06   9.379378980540000E-06
   9.736042956100001E-06   1.009870114430000E-05   1.046745428580000E-05
   1.084240481440000E-05   1.122365688550000E-05   1.161131640480000E-05
   1.200549105810000E-05   1.240629034090000E-05   1.281382558880000E-05
   1.322821000870000E-05   1.364955871020000E-05   1.407798873710000E-05
   1.451361910050000E-05   1.495657081180000E-05   1.540696691590000E-05
   1.586493252580000E-05   1.633059485690000E-05   1.680408326310000E-05
   1.728552927180000E-05   1.777506662130000E-05   1.827283129710000E-05
   1.877896157060000E-05   1.929359803660000E-05   1.981688365320000E-05
   2.034896378070000E-05   2.088998622260000E-05   2.144010126640000E-05
   2.199946172540000E-05   2.256822298100000E-05   2.314654302630000E-05
   2.373458250930000E-05   2.433250477810000E-05   2.494047592610000E-05
   2.555866483810000E-05   2.618724323720000E-05   2.682638573250000E-05
   2.747626986780000E-05   2.813707617060000E-05   2.880898820240000E-05
   2.949219260980000E-05   3.018687917620000E-05   3.089324087460000E-05
   3.161147392100000E-05   3.234177782930000E-05   3.308435546640000E-05
   3.383941310850000E-05   3.460716049890000E-05   3.538781090560000E-05
   3.618158118090000E-05   3.698869182170000E-05   3.780936703060000E-05
   3.864383477820000E-05   3.949232686650000E-05   4.035507899310000E-05
   4.123233081700000E-05   4.212432602490000E-05   4.303131239900000E-05
   4.395354188570000E-05   4.489127066590000E-05   4.584475922570000E-05
   4.681427242930000E-05   4.780007959220000E-05   4.880245455590000E-05
   4.982167576440000E-05   5.085802634130000E-05   5.191179416830000E-05
   5.298327196570000E-05   5.407275737280000E-05   5.518055303170000E-05
   5.630696667050000E-05   5.745231118900000E-05   5.861690474590000E-05
   5.980107084680000E-05   6.100513843450000E-05   6.222944197990000E-05
   6.347432157520000E-05   6.474012302819999E-05   6.602719795860000E-05
   6.733590389560000E-05   6.866660437690000E-05   7.001966905020000E-05
   7.139547377530000E-05   7.279440072930000E-05   7.421683851180000E-05
   7.566318225360000E-05   7.713383372630000E-05   7.862920145340000E-05
   8.014970082459999E-05   8.169575421069999E-05   8.326779108070000E-05
   8.486624812170000E-05   8.649156935990000E-05   8.814420628370000E-05
   8.982461796980001E-05   9.153327120980000E-05   9.327064064060000E-05
   9.503720887620001E-05   9.683346664110000E-05   9.865991290749999E-05
   1.005170550330000E-04   1.024054089030000E-04   1.043254990720000E-04
   1.062778589110000E-04   1.082630307540000E-04   1.102815660510000E-04
   1.123340255190000E-04   1.144209792990000E-04   1.165430071140000E-04
   1.187006984300000E-04   1.208946526180000E-04   1.231254791250000E-04
   1.253937976400000E-04   1.277002382650000E-04   1.300454416940000E-04
   1.324300593860000E-04   1.348547537500000E-04   1.373201983300000E-04
   1.398270779850000E-04   1.423760890880000E-04   1.449679397140000E-04
   1.476033498380000E-04   1.502830515350000E-04   1.530077891840000E-04
   1.557783196740000E-04   1.585954126150000E-04   1.614598505510000E-04
   1.643724291770000E-04   1.673339575620000E-04   1.703452583710000E-04
   1.734071680970000E-04   1.765205372890000E-04   1.796862307920000E-04
   1.829051279860000E-04   1.861781230300000E-04   1.895061251100000E-04
   1.928900586920000E-04   1.963308637800000E-04   1.998294961760000E-04
   2.033869277430000E-04   2.070041466800000E-04   2.106821577940000E-04
   2.144219827780000E-04   2.182246604970000E-04   2.220912472730000E-04
   2.260228171840000E-04   2.300204623580000E-04   2.340852932780000E-04
   2.382184390890000E-04   2.424210479140000E-04   2.466942871710000E-04
   2.510393438990000E-04   2.554574250860000E-04   2.599497580060000E-04
   2.645175905560000E-04   2.691621916100000E-04   2.738848513630000E-04
   2.786868816960000E-04   2.835696165380000E-04   2.885344122350000E-04
   2.935826479280000E-04   2.987157259380000E-04   3.039350721540000E-04
   3.092421364260000E-04   3.146383929730000E-04   3.201253407920000E-04
   3.257045040680000E-04   3.313774326050000E-04   3.371457022530000E-04
   3.430109153470000E-04   3.489747011500000E-04   3.550387163080000E-04
   3.612046453080000E-04   3.674742009470000E-04   3.738491248100000E-04
   3.803311877500000E-04   3.869221903810000E-04   3.936239635800000E-04
   4.004383689940000E-04   4.073672995560000E-04   4.144126800140000E-04
   4.215764674650000E-04   4.288606518930000E-04   4.362672567320000E-04
   4.437983394190000E-04   4.514559919700000E-04   4.592423415600000E-04
   4.671595511130000E-04   4.752098199050000E-04   4.833953841750000E-04
   4.917185177420000E-04   5.001815326420000E-04   5.087867797670000E-04
   5.175366495170001E-04   5.264335724690000E-04   5.354800200480000E-04
   5.446785052140000E-04   5.540315831610000E-04   5.635418520250000E-04
   5.732119536100000E-04   5.830445741180000E-04   5.930424448940000E-04
   6.032083431890000E-04   6.135450929300000E-04   6.240555655030000E-04
   6.347426805490000E-04   6.456094067830000E-04   6.566587628070000E-04
   6.678938179590000E-04   6.793176931610000E-04   6.909335617830000E-04
   7.027446505310000E-04   7.147542403380000E-04   7.269656672800000E-04
   7.393823234970000E-04   7.520076581410000E-04   7.648451783310000E-04
   7.778984501249999E-04   7.911710995190000E-04   8.046668134430000E-04
   8.183893407940000E-04   8.323424934740000E-04   8.465301474470000E-04
   8.609562438210000E-04   8.756247899360001E-04   8.905398604840000E-04
   9.057055986350000E-04   9.211262171920000E-04   9.368059997590000E-04
   9.527493019320000E-04   9.689605525090000E-04   9.854442547199999E-04
   1.002204987480000E-03   1.019247406640000E-03   1.036576246340000E-03
   1.054196320240000E-03   1.072112522920000E-03   1.090329831230000E-03
   1.108853305630000E-03   1.127688091670000E-03   1.146839421350000E-03
   1.166312614600000E-03   1.186113080760000E-03   1.206246320110000E-03
   1.226717925320000E-03   1.247533583100000E-03   1.268699075700000E-03
   1.290220282560000E-03   1.312103181940000E-03   1.334353852550000E-03
   1.356978475280000E-03   1.379983334890000E-03   1.403374821780000E-03
   1.427159433720000E-03   1.451343777720000E-03   1.475934571780000E-03
   1.500938646860000E-03   1.526362948680000E-03   1.552214539720000E-03
   1.578500601140000E-03   1.605228434790000E-03   1.632405465240000E-03
   1.660039241850000E-03   1.688137440830000E-03   1.716707867440000E-03
   1.745758458070000E-03   1.775297282520000E-03   1.805332546220000E-03
   1.835872592480000E-03   1.866925904850000E-03   1.898501109450000E-03
   1.930606977360000E-03   1.963252427110000E-03   1.996446527060000E-03
   2.030198498030000E-03   2.064517715770000E-03   2.099413713620000E-03
   2.134896185140000E-03   2.170974986800000E-03   2.207660140730000E-03
   2.244961837470000E-03   2.282890438840000E-03   2.321456480830000E-03
   2.360670676460000E-03   2.400543918810000E-03   2.441087284050000E-03
   2.482312034480000E-03   2.524229621690000E-03   2.566851689720000E-03
   2.610190078300000E-03   2.654256826160000E-03   2.699064174340000E-03
   2.744624569630000E-03   2.790950667960000E-03   2.838055338010000E-03
   2.885951664710000E-03   2.934652952900000E-03   2.984172731030000E-03
   3.034524754910000E-03   3.085723011540000E-03   3.137781722990000E-03
   3.190715350340000E-03   3.244538597720000E-03   3.299266416380000E-03
   3.354914008840000E-03   3.411496833120000E-03   3.469030607040000E-03
   3.527531312580000E-03   3.587015200300000E-03   3.647498793890000E-03
   3.708998894740000E-03   3.771532586600000E-03   3.835117240340000E-03
   3.899770518790000E-03   3.965510381590000E-03   4.032355090250000E-03
   4.100323213160000E-03   4.169433630810000E-03   4.239705540960000E-03
   4.311158464060000E-03   4.383812248590000E-03   4.457687076620000E-03
   4.532803469420000E-03   4.609182293140000E-03   4.686844764600000E-03
   4.765812457220000E-03   4.846107306970000E-03   4.927751618490000E-03
   5.010768071290000E-03   5.095179726010000E-03   5.181010030900000E-03
   5.268282828250000E-03   5.357022361060000E-03   5.447253279780000E-03
   5.539000649130000E-03   5.632289955080000E-03   5.727147111930000E-03
   5.823598469500000E-03   5.921670820450000E-03   6.021391407730000E-03
   6.122787932150000E-03   6.225888560060000E-03   6.330721931180000E-03
   6.437317166570000E-03   6.545703876710000E-03   6.655912169700000E-03
   6.767972659680000E-03   6.881916475280000E-03   6.997775268290000E-03
   7.115581222450000E-03   7.235367062400000E-03   7.357166062750000E-03
   7.481012057340000E-03   7.606939448630000E-03   7.734983217270000E-03
   7.865178931780001E-03   7.997562758490000E-03   8.132171471530000E-03
   8.269042463070000E-03   8.408213753710000E-03   8.549724003049999E-03
   8.693612520390000E-03   8.839919275690000E-03   8.988684910660001E-03
   9.139950750040000E-03   9.293758813090001E-03   9.450151825270000E-03
   9.609173230080001E-03   9.770867201159999E-03   9.935278654530000E-03
   1.010245326110000E-02   1.027243745940000E-02   1.044527846820000E-02
   1.062102430020000E-02   1.079972377460000E-02   1.098142653150000E-02
   1.116618304490000E-02   1.135404463740000E-02   1.154506349380000E-02
   1.173929267620000E-02   1.193678613850000E-02   1.213759874110000E-02
   1.234178626670000E-02   1.254940543530000E-02   1.276051392020000E-02
   1.297517036410000E-02   1.319343439510000E-02   1.341536664350000E-02
   1.364102875860000E-02   1.387048342570000E-02   1.410379438380000E-02
   1.434102644300000E-02   1.458224550250000E-02   1.482751856920000E-02
   1.507691377610000E-02   1.533050040130000E-02   1.558834888710000E-02
   1.585053085970000E-02   1.611711914910000E-02   1.638818780950000E-02
   1.666381213920000E-02   1.694406870260000E-02   1.722903535030000E-02
   1.751879124170000E-02   1.781341686630000E-02   1.811299406650000E-02
   1.841760606010000E-02   1.872733746350000E-02   1.904227431520000E-02
   1.936250409970000E-02   1.968811577170000E-02   2.001919978110000E-02
   2.035584809770000E-02   2.069815423720000E-02   2.104621328670000E-02
   2.140012193160000E-02   2.175997848210000E-02   2.212588290070000E-02
   2.249793682990000E-02   2.287624362030000E-02   2.326090835960000E-02
   2.365203790160000E-02   2.404974089590000E-02   2.445412781820000E-02
   2.486531100060000E-02   2.528340466350000E-02   2.570852494660000E-02
   2.614078994160000E-02   2.658031972500000E-02   2.702723639110000E-02
   2.748166408630000E-02   2.794372904360000E-02   2.841355961710000E-02
   2.889128631850000E-02   2.937704185270000E-02   2.987096115490000E-02
   3.037318142810000E-02   3.088384218110000E-02   3.140308526740000E-02
   3.193105492460000E-02   3.246789781420000E-02   3.301376306290000E-02
   3.356880230330000E-02   3.413316971650000E-02   3.470702207490000E-02
   3.529051878560000E-02   3.588382193490000E-02   3.648709633290000E-02
   3.710050955970000E-02   3.772423201190000E-02   3.835843694970000E-02
   3.900330054520000E-02   3.965900193140000E-02   4.032572325160000E-02
   4.100364971070000E-02   4.169296962580000E-02   4.239387447920000E-02
   4.310655897110000E-02   4.383122107400000E-02   4.456806208760000E-02
   4.531728669480000E-02   4.607910301820000E-02   4.685372267850000E-02
   4.764136085260000E-02   4.844223633420000E-02   4.925657159370000E-02
   5.008459284070000E-02   5.092653008620000E-02   5.178261720730000E-02
   5.265309201140000E-02   5.353819630270000E-02   5.443817594900000E-02
   5.535328095070000E-02   5.628376550930000E-02   5.722988809890000E-02
   5.819191153730000E-02   5.917010305940000E-02   6.016473439150000E-02
   6.117608182630000E-02   6.220442630020000E-02   6.325005347120000E-02
   6.431325379779999E-02   6.539432262040000E-02   6.649356024270001E-02
   6.761127201580000E-02   6.874776842209999E-02   6.990336516260000E-02
   7.107838324370000E-02   7.227314906680000E-02   7.348799451910000E-02
   7.472325706550000E-02   7.597927984230000E-02   7.725641175280000E-02
   7.855500756430001E-02   7.987542800590000E-02   8.121803986980000E-02
   8.258321611220000E-02   8.397133595750000E-02   8.538278500360000E-02
   8.681795532870000E-02   8.827724560050000E-02   8.976106118670001E-02
   9.126981426780000E-02   9.280392395180000E-02   9.436381638990000E-02
   9.594992489570001E-02   9.756269006500000E-02   9.920255989870000E-02
   1.008699899270000E-01   1.025654433340000E-01   1.042893910920000E-01
   1.060423120860000E-01   1.078246932490000E-01   1.096370296980000E-01
   1.114798248730000E-01   1.133535906720000E-01   1.152588475980000E-01
   1.171961249020000E-01   1.191659607280000E-01   1.211689022660000E-01
   1.232055059010000E-01   1.252763373700000E-01   1.273819719160000E-01
   1.295229944530000E-01   1.316999997210000E-01   1.339135924590000E-01
   1.361643875680000E-01   1.384530102840000E-01   1.407800963490000E-01
   1.431462921910000E-01   1.455522551020000E-01   1.479986534200000E-01
   1.504861667180000E-01   1.530154859850000E-01   1.555873138280000E-01
   1.582023646590000E-01   1.608613648980000E-01   1.635650531740000E-01
   1.663141805290000E-01   1.691095106250000E-01   1.719518199640000E-01
   1.748418980910000E-01   1.777805478270000E-01   1.807685854810000E-01
   1.838068410830000E-01   1.868961586130000E-01   1.900373962330000E-01
   1.932314265310000E-01   1.964791367580000E-01   1.997814290750000E-01
   2.031392208080000E-01   2.065534446980000E-01   2.100250491630000E-01
   2.135549985600000E-01   2.171442734530000E-01   2.207938708850000E-01
   2.245048046570000E-01   2.282781056090000E-01   2.321148219020000E-01
   2.360160193180000E-01   2.399827815460000E-01   2.440162104910000E-01
   2.481174265750000E-01   2.522875690520000E-01   2.565277963200000E-01
   2.608392862500000E-01   2.652232365030000E-01   2.696808648730000E-01
   2.742134096180000E-01   2.788221298070000E-01   2.835083056710000E-01
   2.882732389540000E-01   2.931182532810000E-01   2.980446945190000E-01
   3.030539311560000E-01   3.081473546780000E-01   3.133263799600000E-01
   3.185924456510000E-01   3.239470145820000E-01   3.293915741680000E-01
   3.349276368210000E-01   3.405567403720000E-01   3.462804484970000E-01
   3.521003511520000E-01   3.580180650130000E-01   3.640352339290000E-01
   3.701535293740000E-01   3.763746509130000E-01   3.827003266770000E-01
   3.891323138370000E-01   3.956723990980000E-01   4.023223991930000E-01
   4.090841613870000E-01   4.159595639900000E-01   4.229505168810000E-01
   4.300589620350000E-01   4.372868740680000E-01   4.446362607780000E-01
   4.521091637100000E-01   4.597076587170000E-01   4.674338565410000E-01
   4.752899033990000E-01   4.832779815760000E-01   4.914003100330000E-01
   4.996591450270000E-01   5.080567807300000E-01   5.165955498730000E-01
   5.252778243910000E-01   5.341060160830000E-01   5.430825772820000E-01
   5.522100015340000E-01   5.614908242930000E-01   5.709276236260000E-01
   5.805230209260001E-01   5.902796816440000E-01   6.002003160250000E-01
   6.102876798650000E-01   6.205445752750000E-01   6.309738514570000E-01
   6.415784055010000E-01   6.523611831830000E-01   6.633251797900001E-01
   6.744734409460000E-01   6.858090634630000E-01   6.973351961960000E-01
   7.090550409240000E-01   7.209718532350000E-01   7.330889434310000E-01
   7.454096774480000E-01   7.579374777910000E-01   7.706758244860000E-01
   7.836282560440000E-01   7.967983704460000E-01   8.101898261420000E-01
   8.238063430670000E-01   8.376517036740000E-01   8.517297539849999E-01
   8.660444046619999E-01   8.805996320870000E-01   8.953994794730000E-01
   9.104480579830000E-01   9.257495478759999E-01   9.413081996640000E-01
   9.571283352940000E-01   9.732143493500000E-01   9.895707102730000E-01
   1.006201961600000E+00   1.023112723230000E+00   1.040307692710000E+00
   1.057791646530000E+00   1.075569441450000E+00   1.093646015870000E+00
   1.112026391170000E+00   1.130715673130000E+00   1.149719053340000E+00
   1.169041810630000E+00   1.188689312570000E+00   1.208667016910000E+00
   1.228980473160000E+00   1.249635324060000E+00   1.270637307210000E+00
   1.291992256620000E+00   1.313706104380000E+00   1.335784882230000E+00
   1.358234723310000E+00   1.381061863850000E+00   1.404272644850000E+00
   1.427873513900000E+00   1.451871026950000E+00   1.476271850140000E+00
   1.501082761630000E+00   1.526310653490000E+00   1.551962533630000E+00
   1.578045527750000E+00   1.604566881290000E+00   1.631533961450000E+00
   1.658954259270000E+00   1.686835391680000E+00   1.715185103610000E+00
   1.744011270170000E+00   1.773321898800000E+00   1.803125131550000E+00
   1.833429247270000E+00   1.864242663970000E+00   1.895573941130000E+00
   1.927431782090000E+00   1.959825036440000E+00   1.992762702540000E+00
   2.026253929930000E+00   2.060308021950000E+00   2.094934438300000E+00
   2.130142797640000E+00   2.165942880290000E+00   2.202344630970000E+00
   2.239358161490000E+00   2.276993753640000E+00   2.315261861980000E+00
   2.354173116790000E+00   2.393738327010000E+00   2.433968483230000E+00
   2.474874760740000E+00   2.516468522660000E+00   2.558761323090000E+00
   2.601764910300000E+00   2.645491230000000E+00   2.689952428670000E+00
   2.735160856940000E+00   2.781129073000000E+00   2.827869846080000E+00
   2.875396160030000E+00   2.923721216920000E+00   2.972858440680000E+00
   3.022821480850000E+00   3.073624216390000E+00   3.125280759490000E+00
   3.177805459510000E+00   3.231212907000000E+00   3.285517937690000E+00
   3.340735636670000E+00   3.396881342550000E+00   3.453970651700000E+00
   3.512019422650000E+00   3.571043780420000E+00   3.631060121050000E+00
   3.692085116130000E+00   3.754135717440000E+00   3.817229161650000E+00
   3.881382975130000E+00   3.946614978800000E+00   4.012943293070000E+00
   4.080386342910000E+00   4.148962862920000E+00   4.218691902580000E+00
   4.289592831530000E+00   4.361685344910000E+00   4.434989468890000E+00
   4.509525566190000E+00   4.585314341770000E+00   4.662376848560000E+00
   4.740734493290000E+00   4.820409042490000E+00   4.901422628490000E+00
   4.983797755570000E+00   5.067557306260000E+00   5.152724547630000E+00
   5.239323137800000E+00   5.327377132490000E+00   5.416910991700000E+00
   5.507949586530000E+00   5.600518206060000E+00   5.694642564400000E+00
   5.790348807800000E+00   5.887663521950000E+00   5.986613739330000E+00
   6.087226946760000E+00   6.189531092990000E+00   6.293554596510000E+00
   6.399326353390000E+00   6.506875745370000E+00   6.616232647960000E+00
   6.727427438780000E+00   6.840491006000000E+00   6.955454756880000E+00
   7.072350626540000E+00   7.191211086810000E+00   7.312069155250000E+00
   7.434958404310000E+00   7.559912970690000E+00   7.686967564800000E+00
   7.816157480390000E+00   7.947518604390000E+00   8.081087426840000E+00
   8.216901051040001E+00   8.354997203889999E+00   8.495414246299999E+00
   8.638191183929999E+00   8.783367677939999E+00   8.930984056070001E+00
   9.081081323819999E+00   9.233701175840000E+00   9.388886007520000E+00
   9.546678926749999E+00   9.707123765920000E+00   9.870265094060001E+00
   1.003614822930000E+01   1.020481925120000E+01   1.037632501410000E+01
   1.055071315960000E+01   1.072803212980000E+01   1.090833118120000E+01
   1.109166039800000E+01   1.127807070620000E+01   1.146761388760000E+01
   1.166034259440000E+01   1.185631036350000E+01   1.205557163160000E+01
   1.225818175050000E+01   1.246419700200000E+01   1.267367461380000E+01
   1.288667277560000E+01   1.310325065490000E+01   1.332346841360000E+01
   1.354738722470000E+01   1.377506928930000E+01   1.400657785390000E+01
   1.424197722790000E+01   1.448133280160000E+01   1.472471106410000E+01
   1.497217962210000E+01   1.522380721850000E+01   1.547966375130000E+01
   1.573982029360000E+01   1.600434911280000E+01   1.627332369060000E+01
   1.654681874400000E+01   1.682491024570000E+01   1.710767544510000E+01
   1.739519288980000E+01   1.768754244760000E+01   1.798480532880000E+01
   1.828706410810000E+01   1.859440274830000E+01   1.890690662330000E+01
   1.922466254160000E+01   1.954775877090000E+01   1.987628506210000E+01
   2.021033267470000E+01   2.054999440190000E+01   2.089536459630000E+01
   2.124653919630000E+01   2.160361575260000E+01   2.196669345550000E+01
   2.233587316230000E+01   2.271125742510000E+01   2.309295051990000E+01
   2.348105847500000E+01   2.387568910060000E+01   2.427695201880000E+01
   2.468495869430000E+01   2.509982246470000E+01   2.552165857270000E+01
   2.595058419770000E+01   2.638671848850000E+01   2.683018259620000E+01
   2.728109970830000E+01   2.773959508230000E+01   2.820579608110000E+01
   2.867983220790000E+01   2.916183514240000E+01   2.965193877750000E+01
   3.015027925620000E+01   3.065699500970000E+01   3.117222679550000E+01
   3.169611773690000E+01   3.222881336260000E+01   3.277046164700000E+01
   3.332121305130000E+01   3.388122056580000E+01   3.445063975150000E+01
   3.502962878420000E+01   3.561834849790000E+01   3.621696242960000E+01
   3.682563686480000E+01   3.744454088370000E+01   3.807384640800000E+01
   3.871372824880000E+01   3.936436415530000E+01   4.002593486380000E+01
   4.069862414810000E+01   4.138261887090000E+01   4.207810903490000E+01
   4.278528783640000E+01   4.350435171850000E+01   4.423550042570000E+01
   4.497893705970000E+01   4.573486813540000E+01   4.650350363850000E+01
   4.728505708380000E+01   4.807974557450000E+01   4.888778986250000E+01
   4.970941440980000E+01   5.054484745080000E+01   5.139432105540000E+01
   5.225807119400000E+01   5.313633780290000E+01   5.402936485060000E+01
   5.493740040580000E+01   5.586069670660000E+01   5.679951023010000E+01
   5.775410176390000E+01   5.872473647830000E+01   5.971168400040000E+01
   6.071521848870000E+01   6.173561870910000E+01   6.277316811280000E+01
   6.382815491450000E+01   6.490087217300000E+01   6.599161787209999E+01
   6.710069500380000E+01   6.822841165219999E+01   6.937508107920000E+01
   7.054102181140000E+01   7.172655772880000E+01   7.293201815450000E+01
   7.415773794640000E+01   7.540405758999999E+01   7.667132329339999E+01
   7.795988708279999E+01   7.927010690109999E+01   8.060234670640000E+01
   8.195697657410000E+01   8.333437279890001E+01   8.473491799970000E+01
   8.615900122590000E+01   8.760701806530000E+01   8.907937075410000E+01
   9.057646828860000E+01   9.209872653890000E+01   9.364656836429999E+01
   9.522042373079999E+01   9.682072983060000E+01   9.844793120340000E+01
   1.001024798600000E+02   1.017848354080000E+02   1.034954651790000E+02
   1.052348443600000E+02   1.070034561210000E+02   1.088017917560000E+02
   1.106303508140000E+02   1.124896412400000E+02   1.143801795140000E+02
   1.163024908000000E+02   1.182571090840000E+02   1.202445773290000E+02
   1.222654476220000E+02   1.243202813280000E+02   1.264096492490000E+02
   1.285341317770000E+02   1.306943190610000E+02   1.328908111660000E+02
   1.351242182430000E+02   1.373951606970000E+02   1.397042693600000E+02
   1.420521856660000E+02   1.444395618290000E+02   1.468670610250000E+02
   1.493353575750000E+02   1.518451371320000E+02
    </PP_R>
    <PP_RAB>
   1.973770488210000E-07   2.006942327140000E-07   2.040671662960000E-07
   2.074967865140000E-07   2.109840460620000E-07   2.145299136460000E-07
   2.181353742530000E-07   2.218014294220000E-07   2.255290975250000E-07
   2.293194140490000E-07   2.331734318860000E-07   2.370922216190000E-07
   2.410768718280000E-07   2.451284893840000E-07   2.492481997640000E-07
   2.534371473570000E-07   2.576964957880000E-07   2.620274282360000E-07
   2.664311477650000E-07   2.709088776590000E-07   2.754618617620000E-07
   2.800913648190000E-07   2.847986728350000E-07   2.895850934240000E-07
   2.944519561790000E-07   2.994006130380000E-07   3.044324386580000E-07
   3.095488308030000E-07   3.147512107240000E-07   3.200410235610000E-07
   3.254197387400000E-07   3.308888503830000E-07   3.364498777240000E-07
   3.421043655270000E-07   3.478538845210000E-07   3.537000318300000E-07
   3.596444314230000E-07   3.656887345590000E-07   3.718346202510000E-07
   3.780837957280000E-07   3.844379969120000E-07   3.908989889010000E-07
   3.974685664560000E-07   4.041485545020000E-07   4.109408086350000E-07
   4.178472156340000E-07   4.248696939910000E-07   4.320101944390000E-07
   4.392707004970000E-07   4.466532290180000E-07   4.541598307530000E-07
   4.617925909170000E-07   4.695536297700000E-07   4.774451032060000E-07
   4.854692033520000E-07   4.936281591760000E-07   5.019242371070000E-07
   5.103597416650000E-07   5.189370160990000E-07   5.276584430410000E-07
   5.365264451660000E-07   5.455434858640000E-07   5.547120699280000E-07
   5.640347442440000E-07   5.735140985050000E-07   5.831527659260000E-07
   5.929534239760000E-07   6.029187951230000E-07   6.130516475900000E-07
   6.233547961230000E-07   6.338311027740000E-07   6.444834776970000E-07
   6.553148799510000E-07   6.663283183310000E-07   6.775268521950000E-07
   6.889135923180000E-07   7.004917017580000E-07   7.122643967310000E-07
   7.242349475050000E-07   7.364066793100000E-07   7.487829732610000E-07
   7.613672672970000E-07   7.741630571360000E-07   7.871738972480001E-07
   8.004034018360000E-07   8.138552458500000E-07   8.275331659980000E-07
   8.414409617910000E-07   8.555824965960000E-07   8.699616987060000E-07
   8.845825624380000E-07   8.994491492360000E-07   9.145655888040000E-07
   9.299360802490000E-07   9.455648932520001E-07   9.614563692499999E-07
   9.776149226430000E-07   9.940450420240001E-07   1.010751291420000E-06
   1.027738311560000E-06   1.045010821180000E-06   1.062573618290000E-06
   1.080431581580000E-06   1.098589671700000E-06   1.117052932680000E-06
   1.135826493330000E-06   1.154915568640000E-06   1.174325461250000E-06
   1.194061562940000E-06   1.214129356060000E-06   1.234534415150000E-06
   1.255282408410000E-06   1.276379099290000E-06   1.297830348130000E-06
   1.319642113750000E-06   1.341820455100000E-06   1.364371532990000E-06
   1.387301611740000E-06   1.410617060980000E-06   1.434324357350000E-06
   1.458430086380000E-06   1.482940944260000E-06   1.507863739710000E-06
   1.533205395900000E-06   1.558972952330000E-06   1.585173566830000E-06
   1.611814517520000E-06   1.638903204820000E-06   1.666447153550000E-06
   1.694454014980000E-06   1.722931568980000E-06   1.751887726170000E-06
   1.781330530090000E-06   1.811268159510000E-06   1.841708930610000E-06
   1.872661299380000E-06   1.904133863880000E-06   1.936135366690000E-06
   1.968674697340000E-06   2.001760894720000E-06   2.035403149670000E-06
   2.069610807480000E-06   2.104393370480000E-06   2.139760500730000E-06
   2.175722022650000E-06   2.212287925790000E-06   2.249468367580000E-06
   2.287273676160000E-06   2.325714353240000E-06   2.364801077050000E-06
   2.404544705250000E-06   2.444956277990000E-06   2.486047020980000E-06
   2.527828348570000E-06   2.570311866960000E-06   2.613509377390000E-06
   2.657432879450000E-06   2.702094574400000E-06   2.747506868560000E-06
   2.793682376730000E-06   2.840633925740000E-06   2.888374558010000E-06
   2.936917535110000E-06   2.986276341520000E-06   3.036464688340000E-06
   3.087496517100000E-06   3.139386003630000E-06   3.192147562020000E-06
   3.245795848590000E-06   3.300345765990000E-06   3.355812467320000E-06
   3.412211360360000E-06   3.469558111830000E-06   3.527868651750000E-06
   3.587159177870000E-06   3.647446160160000E-06   3.708746345400000E-06
   3.771076761800000E-06   3.834454723770000E-06   3.898897836700000E-06
   3.964424001890000E-06   4.031051421460000E-06   4.098798603450000E-06
   4.167684366970000E-06   4.237727847380000E-06   4.308948501670000E-06
   4.381366113810000E-06   4.455000800260000E-06   4.529873015580000E-06