<UPF version="2.0.1">
  <PP_INFO>
    Generated by new atomic code, or converted to UPF format
    Author: 
    Generation date: 
    Pseudopotential type: US
    Element: K
    Functional:  SLA  PZ   NOGX NOGC
    Suggested minimum cutoff for wavefunctions:   0. Ry
    Suggested minimum cutoff for charge density:   0. Ry
    The Pseudo was generated with a Non-Relativistic Calculation
    L component and cutoff radius for Local Potential:  0   0.0000
    Valence configuration: 
    nl pn  l   occ       Rcut    Rcut US       E pseu
    3S  1  0  2.00      0.000      0.000     0.000000
    3P  2  1  6.00      0.000      0.000     0.000000
    4S  1  0  0.50      0.000      0.000     0.000000
    4P  2  1  0.00      0.000      0.000     0.000000
    Generation configuration: not available.
  </PP_INFO>
    <!-- END OF HUMAN READABLE SECTION -->
  <PP_HEADER generated="Generated by new atomic code, or converted to UPF format" author="" date="" comment="" element="K" pseudo_type="US" relativistic="no" is_ultrasoft="true" is_paw="false" is_coulomb="false" has_so="false" has_wfc="false" has_gipaw="false" paw_as_gipaw="false" core_correction="true" functional=" SLA  PZ   NOGX NOGC" z_valence="9.0000000000000000" total_psenergy="-56.753530548599997" wfc_cutoff="0.0000000000000000" rho_cutoff="0.0000000000000000" l_max="2" l_max_rho="0" l_local="0" mesh_size="841" number_of_wfc="4" number_of_proj="6"/>
  <PP_MESH>
    <PP_R>
   0.000000000000000E+00   3.011605861190000E-09   6.099450887730000E-09
   9.265465083280000E-09   1.251162730980000E-08   1.583996652430000E-08
   1.925256304710000E-08   2.275154986230000E-08   2.633911395030000E-08
   3.001749765570000E-08   3.378900008790000E-08   3.765597855870000E-08
   4.162085005550000E-08   4.568609275220000E-08   4.985424755770000E-08
   5.412791970450000E-08   5.850978037670000E-08   6.300256838000000E-08
   6.760909185310000E-08   7.233223002309999E-08   7.717493500510000E-08
   8.214023364740000E-08   8.723122942330000E-08   9.245110437090000E-08
   9.780312108180000E-08   1.032906247410000E-07   1.089170452160000E-07
   1.146858992040000E-07   1.206007924260000E-07   1.266654218830000E-07
   1.328835781660000E-07   1.392591478240000E-07   1.457961157960000E-07
   1.524985679010000E-07   1.593706933880000E-07   1.664167875610000E-07
   1.736412544560000E-07   1.810486096020000E-07   1.886434828360000E-07
   1.964306212010000E-07   2.044148919130000E-07   2.126012854000000E-07
   2.209949184250000E-07   2.296010372810000E-07   2.384250210740000E-07
   2.474723850790000E-07   2.567487841950000E-07   2.662600164730000E-07
   2.760120267420000E-07   2.860109103260000E-07   2.962629168540000E-07
   3.067744541620000E-07   3.175520923040000E-07   3.286025676550000E-07
   3.399327871210000E-07   3.515498324580000E-07   3.634609646980000E-07
   3.756736286870000E-07   3.881954577360000E-07   4.010342783970000E-07
   4.141981153500000E-07   4.276951964220000E-07   4.415339577290000E-07
   4.557230489450000E-07   4.702713387160000E-07   4.851879201960000E-07
   5.004821167340000E-07   5.161634877009999E-07   5.322418344640000E-07
   5.487272065120000E-07   5.656299077410000E-07   5.829605028890000E-07
   6.007298241420000E-07   6.189489779040000E-07   6.376293517390000E-07
   6.567826214900001E-07   6.764207585720000E-07   6.965560374620000E-07
   7.172010433640000E-07   7.383686800780000E-07   7.600721780670000E-07
   7.823251027230000E-07   8.051413628490000E-07   8.285352193500000E-07
   8.525212941470000E-07   8.771145793200000E-07   9.023304464700000E-07
   9.281846563360000E-07   9.546933686420000E-07   9.818731521940001E-07
   1.009740995240000E-06   1.038314316100000E-06   1.067610974010000E-06
   1.097649280350000E-06   1.128448010040000E-06   1.160026413280000E-06
   1.192404227610000E-06   1.225601690200000E-06   1.259639550570000E-06
   1.294539083470000E-06   1.330322102250000E-06   1.367010972470000E-06
   1.404628625850000E-06   1.443198574670000E-06   1.482744926390000E-06
   1.523292398770000E-06   1.564866335300000E-06   1.607492721040000E-06
   1.651198198880000E-06   1.696010086160000E-06   1.741956391760000E-06
   1.789065833630000E-06   1.837367856690000E-06   1.886892651290000E-06
   1.937671172040000E-06   1.989735157160000E-06   2.043117148330000E-06
   2.097850511050000E-06   2.153969455440000E-06   2.211509057670000E-06
   2.270505281870000E-06   2.330995002590000E-06   2.393016027890000E-06
   2.456607122910000E-06   2.521808034170000E-06   2.588659514350000E-06
   2.657203347820000E-06   2.727482376690000E-06   2.799540527640000E-06
   2.873422839370000E-06   2.949175490730000E-06   3.026845829590000E-06
   3.106482402430000E-06   3.188134984720000E-06   3.271854611970000E-06
   3.357693611670000E-06   3.445705635990000E-06   3.535945695320000E-06
   3.628470192630000E-06   3.723336958730000E-06   3.820605288460000E-06
   3.920335977670000E-06   4.022591361310000E-06   4.127435352300000E-06
   4.234933481560000E-06   4.345152938920000E-06   4.458162615130000E-06
   4.574033144910000E-06   4.692836951120000E-06   4.814648290000000E-06
   4.939543297600000E-06   5.067600037380000E-06   5.198898548950000E-06
   5.333520898180000E-06   5.471551228390000E-06   5.613075813060000E-06
   5.758183109640000E-06   5.906963814920000E-06   6.059510921690000E-06
   6.215919776850000E-06   6.376288141040000E-06   6.540716249690000E-06
   6.709306875720000E-06   6.882165393780000E-06   7.059399846050000E-06
   7.241121009850000E-06   7.427442466810000E-06   7.618480673900000E-06
   7.814355036239999E-06   8.015187981660000E-06   8.221105037300001E-06
   8.432234908030001E-06   8.648709556880001E-06   8.870664287550001E-06
   9.098237828980000E-06   9.331572422039999E-06   9.570813908450001E-06
   9.816111821920000E-06   1.006761948160000E-05   1.032549408810000E-05
   1.058989682120000E-05   1.086099294150000E-05   1.113895189270000E-05
   1.142394740820000E-05   1.171615761960000E-05   1.201576516770000E-05
   1.232295731690000E-05   1.263792607250000E-05   1.296086830010000E-05
   1.329198584900000E-05   1.363148567870000E-05   1.397957998740000E-05
   1.433648634550000E-05   1.470242783110000E-05   1.507763316950000E-05
   1.546233687630000E-05   1.585677940380000E-05   1.626120729140000E-05
   1.667587331970000E-05   1.710103666850000E-05   1.753696307870000E-05
   1.798392501850000E-05   1.844220185380000E-05   1.891208002230000E-05
   1.939385321330000E-05   1.988782255070000E-05   2.039429678140000E-05
   2.091359246820000E-05   2.144603418800000E-05   2.199195473410000E-05
   2.255169532470000E-05   2.312560581570000E-05   2.371404492000000E-05
   2.431738043110000E-05   2.493598945340000E-05   2.557025863770000E-05
   2.622058442280000E-05   2.688737328360000E-05   2.757104198470000E-05
   2.827201784140000E-05   2.899073898640000E-05   2.972765464380000E-05
   3.048322540980000E-05   3.125792354090000E-05   3.205223324860000E-05
   3.286665100220000E-05   3.370168583940000E-05   3.455785968420000E-05
   3.543570767300000E-05   3.633577848950000E-05   3.725863470710000E-05
   3.820485314120000E-05   3.917502520890000E-05   4.016975729950000E-05
   4.118967115280000E-05   4.223540424830000E-05   4.330761020310000E-05
   4.440695918090000E-05   4.553413831050000E-05   4.668985211570000E-05
   4.787482295510000E-05   4.908979147420000E-05   5.033551706770000E-05
   5.161277835480000E-05   5.292237366530000E-05   5.426512153900000E-05
   5.564186123690000E-05   5.705345326620000E-05   5.850077991780000E-05
   5.998474581800000E-05   6.150627849390000E-05   6.306632895280000E-05
   6.466587227720001E-05   6.630590823360000E-05   6.798746189779999E-05
   6.971158429580000E-05   7.147935306000000E-05   7.329187310360000E-05
   7.515027731060000E-05   7.705572724400001E-05   7.900941387210000E-05
   8.101255831270000E-05   8.306641259630000E-05   8.517226044850000E-05
   8.733141809299999E-05   8.954523507350000E-05   9.181509509760000E-05
   9.414241690180000E-05   9.652865513800000E-05   9.897530128269999E-05
   1.014838845700000E-04   1.040559729450000E-04   1.066931740470000E-04
   1.093971362130000E-04   1.121695495070000E-04   1.150121467780000E-04
   1.179267047410000E-04   1.209150450900000E-04   1.239790356360000E-04
   1.271205914710000E-04   1.303416761720000E-04   1.336443030190000E-04
   1.370305362630000E-04   1.405024924100000E-04   1.440623415450000E-04
   1.477123086900000E-04   1.514546751940000E-04   1.552917801560000E-04
   1.592260218930000E-04   1.632598594340000E-04   1.673958140580000E-04
   1.716364708720000E-04   1.759844804240000E-04   1.804425603630000E-04
   1.850134971320000E-04   1.897001477160000E-04   1.945054414250000E-04
   1.994323817230000E-04   2.044840481090000E-04   2.096635980380000E-04
   2.149742688980000E-04   2.204193800300000E-04   2.260023348080000E-04
   2.317266227580000E-04   2.375958217480000E-04   2.436136002170000E-04
   2.497837194740000E-04   2.561100360430000E-04   2.625965040790000E-04
   2.692471778350000E-04   2.760662141990000E-04   2.830578752900000E-04
   2.902265311240000E-04   2.975766623450000E-04   3.051128630230000E-04
   3.128398435300000E-04   3.207624334790000E-04   3.288855847490000E-04
   3.372143745710000E-04   3.457540087120000E-04   3.545098247200000E-04
   3.634872952660000E-04   3.726920315600000E-04   3.821297868640000E-04
   3.918064600800000E-04   4.017280994450000E-04   4.119009063060000E-04
   4.223312389990000E-04   4.330256168220000E-04   4.439907241080000E-04
   4.552334144060000E-04   4.667607147640000E-04   4.785798301200000E-04
   4.906981478060000E-04   5.031232421650000E-04   5.158628792850000E-04
   5.289250218540000E-04   5.423178341370000E-04   5.560496870760000E-04
   5.701291635280000E-04   5.845650636230000E-04   5.993664102690000E-04
   6.145424547890000E-04   6.301026827050000E-04   6.460568196660000E-04
   6.624148375280000E-04   6.791869605830000E-04   6.963836719540000E-04
   7.140157201470000E-04   7.320941257650000E-04   7.506301884000000E-04
   7.696354936940000E-04   7.891219205830000E-04   8.091016487170000E-04
   8.295871660760000E-04   8.505912767770000E-04   8.721271090709999E-04
   8.942081235560000E-04   9.168481215840000E-04   9.400612538900000E-04
   9.638620294380000E-04   9.882653244879999E-04   1.013286391890000E-03
   1.038940870640000E-03   1.065244795600000E-03   1.092214607590000E-03
   1.119867163630000E-03   1.148219747450000E-03   1.177290080360000E-03
   1.207096332240000E-03   1.237657132980000E-03   1.268991584070000E-03
   1.301119270580000E-03   1.334060273330000E-03   1.367835181540000E-03
   1.402465105630000E-03   1.437971690420000E-03   1.474377128670000E-03
   1.511704174990000E-03   1.549976159980000E-03   1.589217004890000E-03
   1.629451236510000E-03   1.670704002560000E-03   1.713001087350000E-03
   1.756368927940000E-03   1.800834630650000E-03   1.846425987970000E-03
   1.893171496000000E-03   1.941100372200000E-03   1.990242573680000E-03
   2.040628815910000E-03   2.092290591940000E-03   2.145260192050000E-03
   2.199570723970000E-03   2.255256133560000E-03   2.312351226000000E-03
   2.370891687590000E-03   2.430914108010000E-03   2.492456003250000E-03
   2.555555838980000E-03   2.620253054660000E-03   2.686588088140000E-03
   2.754602401000000E-03   2.824338504390000E-03   2.895839985630000E-03
   2.969151535490000E-03   3.044318976080000E-03   3.121389289480000E-03
   3.200410647150000E-03   3.281432440010000E-03   3.364505309330000E-03
   3.449681178350000E-03   3.537013284750000E-03   3.626556213960000E-03
   3.718365933210000E-03   3.812499826570000E-03   3.909016730790000E-03
   4.007976972060000E-03   4.109442403780000E-03   4.213476445120000E-03
   4.320144120760000E-03   4.429512101470000E-03   4.541648745790000E-03
   4.656624142770000E-03   4.774510155790000E-03   4.895380467430000E-03
   5.019310625590000E-03   5.146378090630000E-03   5.276662283860000E-03
   5.410244637150000E-03   5.547208643810000E-03   5.687639910810000E-03
   5.831626212260000E-03   5.979257544280000E-03   6.130626181270000E-03
   6.285826733540000E-03   6.444956206500000E-03   6.608114061250000E-03
   6.775402276760000E-03   6.946925413600000E-03   7.122790679330000E-03
   7.303107995450000E-03   7.487990066160000E-03   7.677552448780000E-03
   7.871913625960000E-03   8.071195079760000E-03   8.275521367589999E-03
   8.485020200020000E-03   8.699822520639999E-03   8.920062587900001E-03
   9.145878059000001E-03   9.377410075970000E-03   9.614803353860000E-03
   9.858206271190001E-03   1.010777096270000E-02   1.036365341450000E-02
   1.062601356130000E-02   1.089501538690000E-02   1.117082702620000E-02
   1.145362087030000E-02   1.174357367470000E-02   1.204086666930000E-02
   1.234568567180000E-02   1.265822120420000E-02   1.297866861120000E-02
   1.330722818290000E-02   1.364410527980000E-02   1.398951046100000E-02
   1.434365961600000E-02   1.470677409960000E-02   1.507908087000000E-02
   1.546081263130000E-02   1.585220797800000E-02   1.625351154520000E-02
   1.666497416050000E-02   1.708685300150000E-02   1.751941175620000E-02
   1.796292078800000E-02   1.841765730430000E-02   1.888390553030000E-02
   1.936195688640000E-02   1.985211017020000E-02   2.035467174340000E-02
   2.086995572350000E-02   2.139828417950000E-02   2.193998733420000E-02
   2.249540376940000E-02   2.306488063870000E-02   2.364877388360000E-02
   2.424744845630000E-02   2.486127854800000E-02   2.549064782240000E-02
   2.613594965590000E-02   2.679758738310000E-02   2.747597454900000E-02
   2.817153516790000E-02   2.888470398760000E-02   2.961592676200000E-02
   3.036566052900000E-02   3.113437389670000E-02   3.192254733600000E-02
   3.273067348080000E-02   3.355925743640000E-02   3.440881709480000E-02
   3.527988345820000E-02   3.617300097170000E-02   3.708872786260000E-02
   3.802763649010000E-02   3.899031370280000E-02   3.997736120500000E-02
   4.098939593380000E-02   4.202705044370000E-02   4.309097330260000E-02
   4.418182949680000E-02   4.530030084710000E-02   4.644708643450000E-02
   4.762290303720000E-02   4.882848557890000E-02   5.006458758800000E-02
   5.133198166840000E-02   5.263145998270000E-02   5.396383474710000E-02
   5.532993873930000E-02   5.673062581870000E-02   5.816677146030000E-02
   5.963927330200000E-02   6.114905170520000E-02   6.269705033070000E-02
   6.428423672790000E-02   6.591160294010000E-02   6.758016612410001E-02
   6.929096918619999E-02   7.104508143400000E-02   7.284359924479999E-02
   7.468764675070000E-02   7.657837654150000E-02   7.851697038480000E-02
   8.050463996490000E-02   8.254262764000000E-02   8.463220721880001E-02
   8.677468475640000E-02   8.897139937100000E-02   9.122372408090000E-02
   9.353306666230000E-02   9.590087052950000E-02   9.832861563700000E-02
   1.008178194040000E-01   1.033700376650000E-01   1.059868656390000E-01
   1.086699389280000E-01   1.114209345410000E-01   1.142415719400000E-01
   1.171336141140000E-01   1.200988686840000E-01   1.231391890310000E-01
   1.262564754550000E-01   1.294526763590000E-01   1.327297894750000E-01
   1.360898631050000E-01   1.395349974030000E-01   1.430673456910000E-01
   1.466891158020000E-01   1.504025714600000E-01   1.542100336950000E-01
   1.581138822960000E-01   1.621165572940000E-01   1.662205604930000E-01
   1.704284570270000E-01   1.747428769690000E-01   1.791665169720000E-01
   1.837021419540000E-01   1.883525868300000E-01   1.931207582780000E-01
   1.980096365620000E-01   2.030222773880000E-01   2.081618138210000E-01
   2.134314582380000E-01   2.188345043380000E-01   2.243743292020000E-01
   2.300543954000000E-01   2.358782531580000E-01   2.418495425780000E-01
   2.479719959080000E-01   2.542494398830000E-01   2.606857981090000E-01
   2.672850935180000E-01   2.740514508870000E-01   2.809890994080000E-01
   2.881023753370000E-01   2.953957247030000E-01   3.028737060880000E-01
   3.105409934730000E-01   3.184023791620000E-01   3.264627767780000E-01
   3.347272243300000E-01   3.432008873680000E-01   3.518890622080000E-01
   3.607971792410000E-01   3.699308063290000E-01   3.792956522890000E-01
   3.888975704530000E-01   3.987425623320000E-01   4.088367813670000E-01
   4.191865367740000E-01   4.297982974860000E-01   4.406786962000000E-01
   4.518345335180000E-01   4.632727822030000E-01   4.750005915320000E-01
   4.870252917670000E-01   4.993543987380000E-01   5.119956185380000E-01
   5.249568523410000E-01   5.382462013400000E-01   5.518719718100000E-01
   5.658426803020000E-01   5.801670589640000E-01   5.948540609970000E-01
   6.099128662580000E-01   6.253528869880000E-01   6.411837737040000E-01
   6.574154212250000E-01   6.740579748600000E-01   6.911218367450001E-01
   7.086176723510000E-01   7.265564171440000E-01   7.449492834230000E-01
   7.638077673300000E-01   7.831436560290000E-01   8.029690350810000E-01
   8.232962959930000E-01   8.441381439650000E-01   8.655076058300000E-01
   8.874180381980000E-01   9.098831358020000E-01   9.329169400600000E-01
   9.565338478480000E-01   9.807486205040000E-01   1.005576393050000E+00
   1.031032683650000E+00   1.057133403310000E+00   1.083894865840000E+00
   1.111333798010000E+00   1.139467350060000E+00   1.168313106370000E+00
   1.197889096480000E+00   1.228213806350000E+00   1.259306189900000E+00
   1.291185680880000E+00   1.323872205030000E+00   1.357386192470000E+00
   1.391748590540000E+00   1.426980876860000E+00   1.463105072750000E+00
   1.500143757020000E+00   1.538120080050000E+00   1.577057778270000E+00
   1.616981189010000E+00   1.657915265710000E+00   1.699885593490000E+00
   1.742918405180000E+00   1.787040597680000E+00   1.832279748800000E+00
   1.878664134490000E+00   1.926222746490000E+00   1.974985310490000E+00
   2.024982304670000E+00   2.076244978780000E+00   2.128805373670000E+00
   2.182696341290000E+00   2.237951565250000E+00   2.294605581860000E+00
   2.352693801740000E+00   2.412252531890000E+00   2.473318998490000E+00
   2.535931370040000E+00   2.600128781330000E+00   2.665951357820000E+00
   2.733440240760000E+00   2.802637612920000E+00   2.873586724880000E+00
   2.946331922170000E+00   3.020918672900000E+00   3.097393596210000E+00
   3.175804491420000E+00   3.256200367900000E+00   3.338631475670000E+00
   3.423149336880000E+00   3.509806777930000E+00   3.598657962540000E+00
   3.689758425600000E+00   3.783165107860000E+00   3.878936391540000E+00
   3.977132136810000E+00   4.077813719210000E+00   4.181044068000000E+00
   4.286887705510000E+00   4.395410787460000E+00   4.506681144310000E+00
   4.620768323650000E+00   4.737743633690000E+00   4.857680187810000E+00
   4.980652950240000E+00   5.106738782980000E+00   5.236016493770000E+00
   5.368566885390000E+00   5.504472806150000E+00   5.643819201670000E+00
   5.786693167990000E+00   5.933184005990000E+00   6.083383277200000E+00
   6.237384861070000E+00   6.395285013600000E+00   6.557182427520000E+00
   6.723178293980000E+00   6.893376365820000E+00   7.067883022350000E+00
   7.246807335920000E+00   7.430261140060000E+00   7.618359099360000E+00
   7.811218781170000E+00   8.008960729069999E+00   8.211708538210001E+00
   8.419588932580000E+00   8.632731844189999E+00   8.851270494290000E+00
   9.075341476660000E+00   9.305084842950000E+00   9.540644190249999E+00
   9.782166750820000E+00   1.002980348410000E+01   1.028370917120000E+01
   1.054404251130000E+01   1.081096622130000E+01   1.108464713720000E+01
   1.136525631840000E+01   1.165296915490000E+01   1.194796547660000E+01
   1.225042966560000E+01   1.256055077210000E+01   1.287852263180000E+01
   1.320454398740000E+01   1.353881861290000E+01   1.388155544090000E+01
   1.423296869290000E+01   1.459327801380000E+01   1.496270860860000E+01
   1.534149138340000E+01   1.572986308980000E+01   1.612806647280000E+01
   1.653635042240000E+01   1.695497012940000E+01   1.738418724470000E+01
   1.782427004300000E+01   1.827549359040000E+01   1.873813991630000E+01
   1.921249818970000E+01   1.969886490000000E+01   2.019754404210000E+01
   2.070884730690000E+01   2.123309427540000E+01   2.177061261910000E+01
   2.232173830440000E+01   2.288681580290000E+01   2.346619830640000E+01
   2.406024794780000E+01   2.466933602750000E+01   2.529384324530000E+01
   2.593415993860000E+01   2.659068632610000E+01   2.726383275830000E+01
   2.795401997360000E+01   2.866167936130000E+01   2.938725323180000E+01
   3.013119509230000E+01   3.089396993060000E+01   3.167605450590000E+01
   3.247793764640000E+01   3.330012055540000E+01   3.414311712370000E+01
   3.500745425180000E+01   3.589367217840000E+01   3.680232481870000E+01
   3.773398011010000E+01   3.868922036750000E+01   3.966864264710000E+01
   4.067285911970000E+01   4.170249745340000E+01   4.275820120560000E+01
   4.384063022560000E+01   4.495046106660000E+01   4.608838740920000E+01
   4.725512049420000E+01   4.845138956790000E+01   4.967794233740000E+01
   5.093554543810000E+01   5.222498491290000E+01   5.354706670330000E+01
   5.490261715370000E+01   5.629248352700000E+01   5.771753453520000E+01
   5.917866088130000E+01   6.067677581700000E+01   6.221281571290000E+01
   6.378774064380000E+01   6.540253498920001E+01   6.705820804810000E+01
   6.875579467000000E+01   7.049635590180000E+01   7.228097965100000E+01
   7.411078136550000E+01   7.598690473089999E+01   7.791052238550000E+01
   7.988283665279999E+01   8.190508029350001E+01   8.397851727570000E+01
   8.610444356500000E+01   8.828418793460000E+01   9.051911279559999E+01
   9.281061504880000E+01   9.516012695770000E+01   9.756911704370000E+01
   1.000390910040000E+02   1.025715926530000E+02   1.051682048870000E+02
   1.078305506720000E+02   1.105602940610000E+02   1.133591412330000E+02
   1.162288415590000E+02   1.191711886950000E+02   1.221880217030000E+02
   1.252812262020000E+02   1.284527355450000E+02   1.317045320310000E+02
   1.350386481350000E+02   1.384571677920000E+02   1.419622276850000E+02
   1.455560185910000E+02   1.492407867480000E+02   1.530188352550000E+02
   1.568925255150000E+02
    </PP_R>
    <PP_RAB>
   2.974117640760000E-09   3.049407787290000E-09   3.126603912960000E-09
   3.205754267850000E-09   3.286908323510000E-09   3.370116803870000E-09
   3.455431716940000E-09   3.542906387320000E-09   3.632595489520000E-09
   3.724555082160000E-09   3.818842642960000E-09   3.915517104730000E-09
   4.014638892150000E-09   4.116269959570000E-09   4.220473829710000E-09
   4.327315633380000E-09   4.436862150180000E-09   4.549181850270000E-09
   4.664344937090000E-09   4.782423391340000E-09   4.903491015890000E-09
   5.027623481950000E-09   5.154898376350000E-09   5.285395250040000E-09
   5.419195667810000E-09   5.556383259290000E-09   5.697043771170000E-09
   5.841265120880000E-09   5.989137451430000E-09   6.140753187850000E-09
   6.296207094910000E-09   6.455596336360000E-09   6.619020535670000E-09
   6.786581838290000E-09   6.958384975470000E-09   7.134537329780000E-09
   7.315149002170000E-09   7.500332880820001E-09   7.690204711670000E-09
   7.884883170800000E-09   8.084489938589999E-09   8.289149775760000E-09
   8.498990601379999E-09   8.714143572790000E-09   8.934743167600000E-09
   9.160927267750000E-09   9.392837245650000E-09   9.630618052590000E-09
   9.874418309309999E-09   1.012439039890000E-08   1.038069056210000E-08
   1.064347899480000E-08   1.091291994840000E-08   1.118918183210000E-08
   1.147243731880000E-08   1.176286345220000E-08   1.206064175820000E-08
   1.236595835790000E-08   1.267900408420000E-08   1.299997460070000E-08
   1.332907052450000E-08   1.366649755130000E-08   1.401246658400000E-08
   1.436719386440000E-08   1.473090110870000E-08   1.510381564570000E-08
   1.548617055910000E-08   1.587820483330000E-08   1.628016350240000E-08
   1.669229780360000E-08   1.711486533430000E-08   1.754813021300000E-08
   1.799236324430000E-08   1.844784208840000E-08   1.891485143420000E-08
   1.939368317800000E-08   1.988463660510000E-08   2.038801857730000E-08
   2.090414372490000E-08   2.143333464270000E-08   2.197592209240000E-08
   2.253224520880000E-08   2.310265171200000E-08   2.368749812450000E-08
   2.428714999440000E-08   2.490198212380000E-08   2.553237880250000E-08
   2.617873404920000E-08   2.684145185680000E-08   2.752094644560000E-08
   2.821764252180000E-08   2.893197554320000E-08   2.966439199110000E-08
   3.041534964960000E-08   3.118531789180000E-08   3.197477797280000E-08
   3.278422333090000E-08   3.361415989580000E-08   3.446510640490000E-08
   3.533759472750000E-08   3.623217019700000E-08   3.714939195240000E-08
   3.808983328710000E-08   3.905408200750000E-08   4.004274080050000E-08
   4.105642761000000E-08   4.209577602330000E-08   4.316143566690000E-08
   4.425407261280000E-08   4.537436979470000E-08   4.652302743470000E-08
   4.770076348140000E-08   4.890831405810000E-08   5.014643392310000E-08
   5.141589694170000E-08   5.271749656970000E-08   5.405204634910000E-08
   5.542038041700000E-08   5.682335402680000E-08   5.826184408260000E-08
   5.973674968750000E-08   6.124899270560000E-08   6.279951833790000E-08
   6.438929571350000E-08   6.601931849500000E-08   6.769060549959999E-08
   6.940420133619999E-08   7.116117705790000E-08   7.296263083180000E-08
   7.480968862510000E-08   7.670350490900000E-08   7.864526338050000E-08
   8.063617770160000E-08   8.267749225880000E-08   8.477048293990000E-08
   8.691645793250000E-08   8.911675854060000E-08   9.137276002379999E-08
   9.368587245650000E-08   9.605754160910000E-08   9.848924985220000E-08
   1.009825170830000E-07   1.035389016730000E-07   1.061600014480000E-07
   1.088474546800000E-07   1.116029411140000E-07   1.144281830190000E-07
   1.173249462630000E-07   1.202950414190000E-07   1.233403248910000E-07
   1.264627000810000E-07   1.296641185750000E-07   1.329465813650000E-07
   1.363121400950000E-07   1.397628983510000E-07   1.433010129670000E-07
   1.469286953820000E-07   1.506482130140000E-07   1.544618906830000E-07
   1.583721120620000E-07   1.623813211670000E-07   1.664920238830000E-07
   1.707067895340000E-07   1.750282524850000E-07   1.794591137920000E-07
   1.840021428870000E-07   1.886601793110000E-07   1.934361344880000E-07
   1.983329935470000E-07   2.033538171820000E-07   2.085017435730000E-07
   2.137799903410000E-07   2.191918565630000E-07   2.247407248300000E-07
   2.304300633650000E-07   2.362634281920000E-07   2.422444653520000E-07
   2.483769131890000E-07   2.546646046820000E-07   2.611114698430000E-07
   2.677215381720000E-07   2.744989411780000E-07   2.814479149570000E-07
   2.885728028460000E-07   2.958780581300000E-07   3.033682468320000E-07
   3.110480505640000E-07   3.189222694530000E-07   3.269958251420000E-07
   3.352737638660000E-07   3.437612596070000E-07   3.524636173260000E-07
   3.613862762790000E-07   3.705348134190000E-07   3.799149468790000E-07
   3.895325395480000E-07   3.993936027350000E-07   4.095042999250000E-07
   4.198709506330000E-07   4.305000343530000E-07   4.413981946090000E-07
   4.525722431040000E-07   4.640291639850000E-07   4.757761181980000E-07
   4.878204479720000E-07   5.001696814070000E-07   5.128315371750000E-07
   5.258139293470000E-07   5.391249723420000E-07   5.527729859940000E-07
   5.667665007570000E-07   5.811142630330000E-07   5.958252406410000E-07
   6.109086284190000E-07   6.263738539770000E-07   6.422305835830000E-07
   6.584887282110000E-07   6.751584497300000E-07   6.922501672580000E-07
   7.097745636750000E-07   7.277425923000000E-07   7.461654837350000E-07
   7.650547528869999E-07   7.844222061640000E-07   8.042799488550000E-07
   8.246403926950000E-07   8.455162636260000E-07   8.669206097450000E-07
   8.888668094660000E-07   9.113685798770000E-07   9.344399853190000E-07
   9.580954461699999E-07   9.823497478639999E-07   1.007218050130000E-06
   1.032715896460000E-06   1.058859223850000E-06   1.085664372720000E-06
   1.113148097160000E-06   1.141327575400000E-06   1.170220420530000E-06
   1.199844691520000E-06   1.230218904500000E-06   1.261362044330000E-06
   1.293293576510000E-06   1.326033459270000E-06   1.359602156120000E-06
   1.394020648560000E-06   1.429310449290000E-06   1.465493615590000E-06
   1.502592763090000E-06   1.540631079990000E-06   1.579632341460000E-06
   1.619620924570000E-06   1.660621823480000E-06   1.702660665090000E-06
   1.745763725040000E-06   1.789957944140000E-06   1.835270945230000E-06
   1.881731050410000E-06   1.929367298740000E-06   1.978209464440000E-06
   2.028288075460000E-06   2.079634432550000E-06   2.132280628850000E-06
   2.186259569970000E-06   2.241604994480000E-06   2.298351495080000E-06
   2.356534540190000E-06   2.416190496090000E-06   2.477356649710000E-06
   2.540071231880000E-06   2.604373441250000E-06   2.670303468810000E-06
   2.737902522960000E-06   2.807212855310000E-06   2.878277787080000E-06
   2.951141736170000E-06   3.025850244900000E-06   3.102450008540000E-06
   3.180988904430000E-06   3.261516021930000E-06   3.344081693120000E-06
   3.428737524220000E-06   3.515536427890000E-06   3.604532656270000E-06
   3.695781834900000E-06   3.789340997480000E-06   3.885268621540000E-06
   3.983624664970000E-06   4.084470603490000E-06   4.187869469090000E-06
   4.293885889440000E-06   4.402586128250000E-06   4.514038126710000E-06
   4.628311545940000E-06   4.745477810550000E-06   4.865610153270000E-06
   4.988783660720000E-06   5.115075320360000E-06   5.244564068590000E-06
   5.377330840080000E-06   5.513458618400000E-06   5.653032487830000E-06
   5.796139686590000E-06   5.942869661330000E-06   6.093314123070000E-06
   6.247567104490000E-06   6.405725018720000E-06   6.567886719620000E-06
   6.734153563520000E-06   6.904629472610000E-06   7.079420999880000E-06
   7.258637395740000E-06   7.442390676250000E-06   7.630795693210000E-06
   7.823970205880001E-06   8.022034954629999E-06   8.225113736349999E-06
   8.433333481920000E-06   8.646824335429999E-06   8.865719735639999E-06
   9.090156499280001E-06   9.320274906649999E-06   9.556218789230000E-06
   9.798135619639999E-06   1.004617660380000E-05   1.030049677530000E-05
   1.056125509260000E-05   1.082861453820000E-05   1.110274222030000E-05