<UPF version="2.0.1">
  <PP_INFO>
    Generated by new atomic code, or converted to UPF format
    Author: 
    Generation date: 
    Pseudopotential type: US
    Element: La
    Functional: SLA  PZ   NOGX NOGC
    Suggested minimum cutoff for wavefunctions:   0. Ry
    Suggested minimum cutoff for charge density:   0. Ry
    The Pseudo was generated with a Non-Relativistic Calculation
    L component and cutoff radius for Local Potential:  0   0.0000
    Valence configuration: 
    nl pn  l   occ       Rcut    Rcut US       E pseu
    5S  1  0  2.00      0.000      0.000     0.000000
    5P  2  1  6.00      0.000      0.000     0.000000
    5D  3  2  1.00      0.000      0.000     0.000000
    6S  1  0  1.50      0.000      0.000     0.000000
    6P  2  1  0.50      0.000      0.000     0.000000
    4F  4  3  0.00      0.000      0.000     0.000000
    Generation configuration: not available.
  </PP_INFO>
    <!-- END OF HUMAN READABLE SECTION -->
  <PP_HEADER generated="Generated by new atomic code, or converted to UPF format" author="" date="" comment="" element="La" pseudo_type="US" relativistic="no" is_ultrasoft="true" is_paw="false" is_coulomb="false" has_so="false" has_wfc="false" has_gipaw="false" paw_as_gipaw="false" core_correction="true" functional="SLA  PZ   NOGX NOGC" z_valence="11.000000000000000" total_psenergy="-101.71754703000001" wfc_cutoff="0.0000000000000000" rho_cutoff="0.0000000000000000" l_max="3" l_max_rho="0" l_local="0" mesh_size="995" number_of_wfc="6" number_of_proj="8"/>
  <PP_MESH>
    <PP_R>
   0.000000000000000E+00   7.433475277190000E-07   1.499401544000000E-06
   2.268379248530000E-06   3.050501553720000E-06   3.845993148170000E-06
   4.655082561240000E-06   5.478002228650000E-06   6.314988559290000E-06
   7.166282003150000E-06   8.032127120350000E-06   8.912772651439999E-06
   9.808471588850000E-06   1.071948124950000E-05   1.164606334900000E-05
   1.258848407620000E-05   1.354701417060000E-05   1.452192899910000E-05
   1.551350863610000E-05   1.652203794310000E-05   1.754780665110000E-05
   1.859110944350000E-05   1.965224604120000E-05   2.073152128800000E-05
   2.182924523900000E-05   2.294573324890000E-05   2.408130606310000E-05
   2.523628990980000E-05   2.641101659340000E-05   2.760582359020000E-05
   2.882105414510000E-05   3.005705737040000E-05   3.131418834580000E-05
   3.259280822080000E-05   3.389328431810000E-05   3.521599023930000E-05
   3.656130597230000E-05   3.792961800010000E-05   3.932131941250000E-05
   4.073681001820000E-05   4.217649646030000E-05   4.364079233290000E-05
   4.513011829990000E-05   4.664490221570000E-05   4.818557924860000E-05
   4.975259200510000E-05   5.134639065780000E-05   5.296743307400000E-05
   5.461618494810000E-05   5.629311993440000E-05   5.799871978400000E-05
   5.973347448260000E-05   6.149788239180001E-05   6.329245039170000E-05
   6.511769402699999E-05   6.697413765500000E-05   6.886231459590000E-05
   7.078276728650000E-05   7.273604743560001E-05   7.472271618280000E-05
   7.674334425960000E-05   7.879851215340000E-05   8.088881027410000E-05
   8.301483912390001E-05   8.517720946990000E-05   8.737654251900001E-05
   8.961347009720000E-05   9.188863483040000E-05   9.420269032960001E-05
   9.655630137790000E-05   9.895014412240000E-05   1.013849062680000E-04
   1.038612872740000E-04   1.063799985570000E-04   1.089417636950000E-04
   1.115473186330000E-04   1.141974118950000E-04   1.168928048040000E-04
   1.196342716930000E-04   1.224226001320000E-04   1.252585911540000E-04
   1.281430594850000E-04   1.310768337760000E-04   1.340607568450000E-04
   1.370956859140000E-04   1.401824928600000E-04   1.433220644620000E-04
   1.465153026600000E-04   1.497631248080000E-04   1.530664639430000E-04
   1.564262690500000E-04   1.598435053360000E-04   1.633191545080000E-04
   1.668542150510000E-04   1.704497025220000E-04   1.741066498320000E-04
   1.778261075530000E-04   1.816091442130000E-04   1.854568466050000E-04
   1.893703200990000E-04   1.933506889610000E-04   1.973990966740000E-04
   2.015167062660000E-04   2.057047006480000E-04   2.099642829490000E-04
   2.142966768650000E-04   2.187031270080000E-04   2.231848992670000E-04
   2.277432811680000E-04   2.323795822450000E-04   2.370951344200000E-04
   2.418912923770000E-04   2.467694339610000E-04   2.517309605680000E-04
   2.567772975470000E-04   2.619098946150000E-04   2.671302262660000E-04
   2.724397922010000E-04   2.778401177560000E-04   2.833327543390000E-04
   2.889192798790000E-04   2.946012992770000E-04   3.003804448660000E-04
   3.062583768840000E-04   3.122367839460000E-04   3.183173835330000E-04
   3.245019224840000E-04   3.307921774980000E-04   3.371899556420000E-04
   3.436970948740000E-04   3.503154645700000E-04   3.570469660600000E-04
   3.638935331730000E-04   3.708571327950000E-04   3.779397654350000E-04
   3.851434657950000E-04   3.924703033590000E-04   3.999223829860000E-04
   4.075018455140000E-04   4.152108683750000E-04   4.230516662240000E-04
   4.310264915690000E-04   4.391376354240000E-04   4.473874279630000E-04
   4.557782391910000E-04   4.643124796280000E-04   4.729926009940000E-04
   4.818210969210000E-04   4.908005036640001E-04   4.999334008340000E-04
   5.092224121350000E-04   5.186702061210000E-04   5.282794969590000E-04
   5.380530452130000E-04   5.479936586350000E-04   5.581041929690000E-04
   5.683875527780000E-04   5.788466922710000E-04   5.894846161570000E-04
   6.003043805050000E-04   6.113090936250000E-04   6.225019169570000E-04
   6.338860659830001E-04   6.454648111480000E-04   6.572414788030000E-04
   6.692194521560000E-04   6.814021722470000E-04   6.937931389350000E-04
   7.063959119060000E-04   7.192141116920000E-04   7.322514207140000E-04
   7.455115843380000E-04   7.589984119540000E-04   7.727157780660000E-04
   7.866676234070000E-04   8.008579560730000E-04   8.152908526720000E-04
   8.299704594950000E-04   8.449009937090000E-04   8.600867445690000E-04
   8.755320746470000E-04   8.912414210860000E-04   9.072192968790000E-04
   9.234702921590000E-04   9.399990755230000E-04   9.568103953720000E-04
   9.739090812710000E-04   9.913000453420000E-04   1.008988283670000E-03
   1.026978877750000E-03   1.045276995930000E-03   1.063887894900000E-03
   1.082816921210000E-03   1.102069512820000E-03   1.121651200600000E-03
   1.141567610010000E-03   1.161824462650000E-03   1.182427577910000E-03
   1.203382874670000E-03   1.224696372980000E-03   1.246374195800000E-03
   1.268422570750000E-03   1.290847831890000E-03   1.313656421580000E-03
   1.336854892280000E-03   1.360449908460000E-03   1.384448248510000E-03
   1.408856806690000E-03   1.433682595110000E-03   1.458932745730000E-03
   1.484614512440000E-03   1.510735273110000E-03   1.537302531730000E-03
   1.564323920560000E-03   1.591807202320000E-03   1.619760272420000E-03
   1.648191161250000E-03   1.677108036440000E-03   1.706519205250000E-03
   1.736433116950000E-03   1.766858365230000E-03   1.797803690660000E-03
   1.829277983240000E-03   1.861290284920000E-03   1.893849792230000E-03
   1.926965858870000E-03   1.960647998460000E-03   1.994905887210000E-03
   2.029749366770000E-03   2.065188446970000E-03   2.101233308800000E-03
   2.137894307230000E-03   2.175181974260000E-03   2.213107021930000E-03
   2.251680345350000E-03   2.290913025910000E-03   2.330816334390000E-03
   2.371401734230000E-03   2.412680884840000E-03   2.454665644930000E-03
   2.497368075890000E-03   2.540800445320000E-03   2.584975230480000E-03
   2.629905121950000E-03   2.675603027200000E-03   2.722082074370000E-03
   2.769355615990000E-03   2.817437232820000E-03   2.866340737790000E-03
   2.916080179930000E-03   2.966669848410000E-03   3.018124276670000E-03
   3.070458246570000E-03   3.123686792650000E-03   3.177825206440000E-03
   3.232889040860000E-03   3.288894114670000E-03   3.345856517070000E-03
   3.403792612230000E-03   3.462719044080000E-03   3.522652741050000E-03
   3.583610920930000E-03   3.645611095810000E-03   3.708671077160000E-03
   3.772808980880000E-03   3.838043232550000E-03   3.904392572710000E-03
   3.971876062250000E-03   4.040513087860000E-03   4.110323367630000E-03
   4.181326956700000E-03   4.253544253040000E-03   4.326996003270000E-03
   4.401703308660000E-03   4.477687631170000E-03   4.554970799630000E-03
   4.633575016000000E-03   4.713522861740000E-03   4.794837304340000E-03
   4.877541703840000E-03   4.961659819630000E-03   5.047215817220000E-03
   5.134234275180000E-03   5.222740192230000E-03   5.312758994420000E-03
   5.404316542400000E-03   5.497439138880000E-03   5.592153536190000E-03
   5.688486943930000E-03   5.786467036840000E-03   5.886121962690000E-03
   5.987480350410000E-03   6.090571318320000E-03   6.195424482450000E-03
   6.302069965090000E-03   6.410538403420000E-03   6.520860958320000E-03
   6.633069323330000E-03   6.747195733730000E-03   6.863272975850000E-03
   6.981334396420000E-03   7.101413912210000E-03   7.223546019740000E-03
   7.347765805200000E-03   7.474108954520000E-03   7.602611763660000E-03
   7.733311148980000E-03   7.866244657890001E-03   8.001450479600001E-03
   8.138967456150000E-03   8.278835093480000E-03   8.421093572880000E-03
   8.565783762440000E-03   8.712947228870000E-03   8.862626249360000E-03
   9.014863823820000E-03   9.169703687150000E-03   9.327190321850001E-03
   9.487368970779999E-03   9.650285650160000E-03   9.815987162810000E-03
   9.984521111560000E-03   1.015593591300000E-02   1.033028081120000E-02
   1.050760589210000E-02   1.068796209780000E-02   1.087140124110000E-02
   1.105797602060000E-02   1.124774003550000E-02   1.144074780140000E-02
   1.163705476580000E-02   1.183671732370000E-02   1.203979283440000E-02
   1.224633963750000E-02   1.245641707000000E-02   1.267008548300000E-02
   1.288740625930000E-02   1.310844183100000E-02   1.333325569730000E-02
   1.356191244290000E-02   1.379447775640000E-02   1.403101844940000E-02
   1.427160247550000E-02   1.451629894970000E-02   1.476517816860000E-02
   1.501831163050000E-02   1.527577205560000E-02   1.553763340730000E-02
   1.580397091340000E-02   1.607486108740000E-02   1.635038175100000E-02
   1.663061205570000E-02   1.691563250640000E-02   1.720552498400000E-02
   1.750037276880000E-02   1.780026056510000E-02   1.810527452470000E-02
   1.841550227220000E-02   1.873103293020000E-02   1.905195714440000E-02
   1.937836711010000E-02   1.971035659870000E-02   2.004802098420000E-02
   2.039145727120000E-02   2.074076412220000E-02   2.109604188630000E-02
   2.145739262790000E-02   2.182492015620000E-02   2.219873005460000E-02
   2.257892971160000E-02   2.296562835110000E-02   2.335893706410000E-02
   2.375896884070000E-02   2.416583860230000E-02   2.457966323450000E-02
   2.500056162130000E-02   2.542865467860000E-02   2.586406538930000E-02
   2.630691883840000E-02   2.675734224920000E-02   2.721546501960000E-02
   2.768141875940000E-02   2.815533732800000E-02   2.863735687320000E-02
   2.912761586980000E-02   2.962625515970000E-02   3.013341799240000E-02
   3.064925006590000E-02   3.117389956880000E-02   3.170751722270000E-02
   3.225025632570000E-02   3.280227279630000E-02   3.336372521790000E-02
   3.393477488520000E-02   3.451558584960000E-02   3.510632496680000E-02
   3.570716194470000E-02   3.631826939230000E-02   3.693982286880000E-02
   3.757200093460000E-02   3.821498520210000E-02   3.886896038830000E-02
   3.953411436760000E-02   4.021063822590000E-02   4.089872631540000E-02
   4.159857631050000E-02   4.231038926450000E-02   4.303436966750000E-02
   4.377072550520000E-02   4.451966831820000E-02   4.528141326340000E-02
   4.605617917530000E-02   4.684418862920000E-02   4.764566800500000E-02
   4.846084755210000E-02   4.928996145590000E-02   5.013324790480000E-02
   5.099094915860000E-02   5.186331161830000E-02   5.275058589680000E-02
   5.365302689080000E-02   5.457089385420000E-02   5.550445047230000E-02
   5.645396493780000E-02   5.741971002810000E-02   5.840196318280000E-02
   5.940100658440000E-02   6.041712723860000E-02   6.145061705730000E-02
   6.250177294210001E-02   6.357089686980000E-02   6.465829597889999E-02
   6.576428265820000E-02   6.688917463620001E-02   6.803329507270001E-02
   6.919697265130000E-02   7.038054167410000E-02   7.158434215749999E-02
   7.280871993010000E-02   7.405402673200000E-02   7.532062031570000E-02
   7.660886454910000E-02   7.791912951970000E-02   7.925179164140000E-02
   8.060723376209999E-02   8.198584527430000E-02   8.338802222620000E-02
   8.481416743620000E-02   8.626469060830000E-02   8.774000844960000E-02
   8.924054479040000E-02   9.076673070580001E-02   9.231900463950000E-02
   9.389781252970000E-02   9.550360793730001E-02   9.713685217640000E-02
   9.879801444640000E-02   1.004875719670000E-01   1.022060101160000E-01
   1.039538225660000E-01   1.057315114310000E-01   1.075395874060000E-01
   1.093785699160000E-01   1.112489872660000E-01   1.131513767910000E-01
   1.150862850090000E-01   1.170542677830000E-01   1.190558904750000E-01
   1.210917281150000E-01   1.231623655570000E-01   1.252683976570000E-01
   1.274104294360000E-01   1.295890762590000E-01   1.318049640090000E-01
   1.340587292670000E-01   1.363510194970000E-01   1.386824932300000E-01
   1.410538202520000E-01   1.434656818000000E-01   1.459187707550000E-01
   1.484137918430000E-01   1.509514618340000E-01   1.535325097510000E-01
   1.561576770810000E-01   1.588277179820000E-01   1.615433995070000E-01
   1.643055018170000E-01   1.671148184110000E-01   1.699721563510000E-01
   1.728783364960000E-01   1.758341937350000E-01   1.788405772280000E-01
   1.818983506500000E-01   1.850083924430000E-01   1.881715960590000E-01
   1.913888702260000E-01   1.946611392050000E-01   1.979893430560000E-01
   2.013744379060000E-01   2.048173962290000E-01   2.083192071190000E-01
   2.118808765790000E-01   2.155034278080000E-01   2.191879014940000E-01
   2.229353561160000E-01   2.267468682450000E-01   2.306235328540000E-01
   2.345664636340000E-01   2.385767933140000E-01   2.426556739820000E-01
   2.468042774220000E-01   2.510237954490000E-01   2.553154402480000E-01
   2.596804447240000E-01   2.641200628610000E-01   2.686355700740000E-01
   2.732282635800000E-01   2.778994627720000E-01   2.826505095960000E-01
   2.874827689340000E-01   2.923976290020000E-01   2.973965017430000E-01
   3.024808232370000E-01   3.076520541110000E-01   3.129116799610000E-01
   3.182612117730000E-01   3.237021863660000E-01   3.292361668270000E-01
   3.348647429600000E-01   3.405895317460000E-01   3.464121778080000E-01
   3.523343538770000E-01   3.583577612820000E-01   3.644841304300000E-01
   3.707152213080000E-01   3.770528239880000E-01   3.834987591420000E-01
   3.900548785610000E-01   3.967230656920000E-01   4.035052361750000E-01
   4.104033383980000E-01   4.174193540510000E-01   4.245552986990000E-01
   4.318132223630000E-01   4.391952101030000E-01   4.467033826200000E-01
   4.543398968680000E-01   4.621069466700000E-01   4.700067633480000E-01
   4.780416163670000E-01   4.862138139850000E-01   4.945257039160000E-01
   5.029796740050000E-01   5.115781529140000E-01   5.203236108210000E-01
   5.292185601240000E-01   5.382655561730000E-01   5.474671979920001E-01
   5.568261290370000E-01   5.663450379460000E-01   5.760266593190000E-01
   5.858737744970000E-01   5.958892123660000E-01   6.060758501680000E-01
   6.164366143260001E-01   6.269744812880000E-01   6.376924783790000E-01
   6.485936846720000E-01   6.596812318730000E-01   6.709583052200000E-01
   6.824281443960000E-01   6.940940444660000E-01   7.059593568170000E-01
   7.180274901230000E-01   7.303019113250000E-01   7.427861466270000E-01
   7.554837825089999E-01   7.683984667550000E-01   7.815339095050000E-01
   7.948938843160001E-01   8.084822292510000E-01   8.223028479790000E-01
   8.363597108960000E-01   8.506568562660000E-01   8.651983913830000E-01
   8.799884937490000E-01   8.950314122730000E-01   9.103314684950000E-01
   9.258930578260000E-01   9.417206508080000E-01   9.578187944030000E-01
   9.741921132960000E-01   9.908453112240000E-01   1.007783172330000E+00
   1.025010562530000E+00   1.042532430930000E+00   1.060353811210000E+00
   1.078479823120000E+00   1.096915673900000E+00   1.115666659820000E+00
   1.134738167680000E+00   1.154135676350000E+00   1.173864758350000E+00
   1.193931081480000E+00   1.214340410400000E+00   1.235098608320000E+00
   1.256211638650000E+00   1.277685566780000E+00   1.299526561730000E+00
   1.321740898020000E+00   1.344334957380000E+00   1.367315230650000E+00
   1.390688319620000E+00   1.414460938930000E+00   1.438639917990000E+00
   1.463232202950000E+00   1.488244858700000E+00   1.513685070890000E+00
   1.539560148000000E+00   1.565877523450000E+00   1.592644757700000E+00
   1.619869540460000E+00   1.647559692890000E+00   1.675723169840000E+00
   1.704368062110000E+00   1.733502598840000E+00   1.763135149810000E+00
   1.793274227890000E+00   1.823928491450000E+00   1.855106746860000E+00
   1.886817951030000E+00   1.919071213980000E+00   1.951875801450000E+00
   1.985241137560000E+00   2.019176807520000E+00   2.053692560410000E+00
   2.088798311910000E+00   2.124504147250000E+00   2.160820324010000E+00
   2.197757275120000E+00   2.235325611870000E+00   2.273536126900000E+00
   2.312399797360000E+00   2.351927788020000E+00   2.392131454530000E+00
   2.433022346600000E+00   2.474612211400000E+00   2.516912996900000E+00
   2.559936855290000E+00   2.603696146500000E+00   2.648203441720000E+00
   2.693471527030000E+00   2.739513407090000E+00   2.786342308830000E+00
   2.833971685290000E+00   2.882415219470000E+00   2.931686828250000E+00
   2.981800666430000E+00   3.032771130730000E+00   3.084612863980000E+00
   3.137340759310000E+00   3.190969964420000E+00   3.245515885950000E+00
   3.300994193880000E+00   3.357420826060000E+00   3.414811992770000E+00
   3.473184181370000E+00   3.532554161080000E+00   3.592938987730000E+00
   3.654356008720000E+00   3.716822867960000E+00   3.780357510990000E+00
   3.844978190070000E+00   3.910703469470000E+00   3.977552230800000E+00
   4.045543678410000E+00   4.114697344920000E+00   4.185033096850000E+00
   4.256571140300000E+00   4.329332026770000E+00   4.403336659040000E+00
   4.478606297210000E+00   4.555162564810000E+00   4.633027454950000E+00
   4.712223336730000E+00   4.792772961570000E+00   4.874699469840000E+00
   4.958026397430000E+00   5.042777682550000E+00   5.128977672610000E+00
   5.216651131200000E+00   5.305823245210000E+00   5.396519632050000E+00
   5.488766347060000E+00   5.582589890910000E+00   5.678017217300000E+00
   5.775075740660000E+00   5.873793344020000E+00   5.974198387040000E+00
   6.076319714140000E+00   6.180186662810000E+00   6.285829072010000E+00
   6.393277290750000E+00   6.502562186840000E+00   6.613715155710000E+00
   6.726768129450000E+00   6.841753586000000E+00   6.958704558460000E+00
   7.077654644570000E+00   7.198638016400000E+00   7.321689430120000E+00
   7.446844236020000E+00   7.574138388670000E+00   7.703608457200000E+00
   7.835291635860000E+00   7.969225754690000E+00   8.105449290350000E+00
   8.244001377240000E+00   8.384921818690000E+00   8.528251098420000E+00
   8.674030392150000E+00   8.822301579459999E+00   8.973107255790000E+00
   9.126490744680000E+00   9.282496110249999E+00   9.441168169830000E+00
   9.602552506820000E+00   9.766695483820000E+00   9.933644255930000E+00
   1.010344678430000E+01   1.027615184990000E+01   1.045180906760000E+01
   1.063046890030000E+01   1.081218267340000E+01   1.099700259000000E+01
   1.118498174500000E+01   1.137617414140000E+01   1.157063470490000E+01
   1.176841930040000E+01   1.196958474760000E+01   1.217418883730000E+01
   1.238229034830000E+01   1.259394906430000E+01   1.280922579060000E+01
   1.302818237210000E+01   1.325088171080000E+01   1.347738778390000E+01
   1.370776566220000E+01   1.394208152880000E+01   1.418040269810000E+01
   1.442279763520000E+01   1.466933597550000E+01   1.492008854460000E+01
   1.517512737890000E+01   1.543452574620000E+01   1.569835816650000E+01
   1.596670043390000E+01   1.623962963780000E+01   1.651722418560000E+01
   1.679956382470000E+01   1.708672966600000E+01   1.737880420650000E+01
   1.767587135360000E+01   1.797801644910000E+01   1.828532629330000E+01
   1.859788917030000E+01   1.891579487360000E+01   1.923913473120000E+01
   1.956800163230000E+01   1.990249005420000E+01   2.024269608890000E+01
   2.058871747090000E+01   2.094065360550000E+01   2.129860559720000E+01
   2.166267627860000E+01   2.203297024020000E+01   2.240959386030000E+01
   2.279265533550000E+01   2.318226471210000E+01   2.357853391720000E+01
   2.398157679140000E+01   2.439150912090000E+01   2.480844867160000E+01
   2.523251522200000E+01   2.566383059820000E+01   2.610251870880000E+01
   2.654870558050000E+01   2.700251939400000E+01   2.746409052130000E+01
   2.793355156280000E+01   2.841103738570000E+01   2.889668516230000E+01
   2.939063440990000E+01   2.989302703050000E+01   3.040400735190000E+01
   3.092372216860000E+01   3.145232078490000E+01   3.198995505680000E+01
   3.253677943620000E+01   3.309295101520000E+01   3.365862957120000E+01
   3.423397761270000E+01   3.481916042590000E+01   3.541434612260000E+01
   3.601970568820000E+01   3.663541303070000E+01   3.726164503090000E+01
   3.789858159320000E+01   3.854640569710000E+01   3.920530345000000E+01
   3.987546414040000E+01   4.055708029240000E+01   4.125034772140000E+01
   4.195546558950000E+01   4.267263646350000E+01   4.340206637260000E+01
   4.414396486810000E+01   4.489854508300000E+01   4.566602379350000E+01
   4.644662148150000E+01   4.724056239750000E+01   4.804807462550000E+01
   4.886939014800000E+01   4.970474491310000E+01   5.055437890220000E+01
   5.141853619850000E+01   5.229746505770000E+01   5.319141797920000E+01
   5.410065177820000E+01   5.502542766010000E+01   5.596601129510000E+01
   5.692267289460000E+01   5.789568728900000E+01   5.888533400650000E+01
   5.989189735360000E+01   6.091566649620000E+01   6.195693554360000E+01
   6.301600363210000E+01   6.409317501160000E+01   6.518875913239999E+01
   6.630307073480000E+01   6.743642993890001E+01   6.858916233690000E+01
   6.976159908640000E+01   7.095407700590000E+01   7.216693867120000E+01
   7.340053251400001E+01   7.465521292190000E+01   7.593134034030000E+01
   7.722928137600000E+01   7.854940890220000E+01   7.989210216610000E+01
   8.125774689750000E+01   8.264673541960001E+01   8.405946676210000E+01
   8.549634677520000E+01   8.695778824680001E+01   8.844421102070000E+01
   8.995604211760001E+01   9.149371585700000E+01   9.305767398310000E+01
   9.464836579060000E+01   9.626624825460000E+01   9.791178616140000E+01
   9.958545224210000E+01   1.012877273090000E+02   1.030191003920000E+02
   1.047800688820000E+02   1.065711386700000E+02   1.083928242970000E+02
   1.102456490970000E+02   1.121301453510000E+02   1.140468544390000E+02
   1.159963269940000E+02   1.179791230610000E+02   1.199958122600000E+02
   1.220469739460000E+02   1.241331973790000E+02   1.262550818890000E+02
   1.284132370540000E+02   1.306082828700000E+02   1.328408499300000E+02
   1.351115796080000E+02   1.374211242410000E+02   1.397701473170000E+02
   1.421593236640000E+02   1.445893396450000E+02   1.470608933590000E+02
   1.495746948340000E+02   1.521314662370000E+02   1.547319420790000E+02
   1.573768694270000E+02   1.600670081150000E+02   1.628031309710000E+02
   1.655860240280000E+02   1.684164867580000E+02   1.712953322980000E+02
   1.742233876850000E+02   1.772014940920000E+02   1.802305070720000E+02
   1.833112968020000E+02   1.864447483320000E+02   1.896317618440000E+02
   1.928732529030000E+02   1.961701527280000E+02   1.995234084550000E+02
   2.029339834080000E+02   2.064028573800000E+02   2.099310269120000E+02
   2.135195055780000E+02   2.171693242780000E+02   2.208815315360000E+02
   2.246571937950000E+02   2.284973957320000E+02   2.324032405610000E+02
   2.363758503570000E+02   2.404163663730000E+02   2.445259493710000E+02
   2.487057799550000E+02   2.529570589100000E+02   2.572810075450000E+02
   2.616788680470000E+02   2.661519038370000E+02   2.707013999310000E+02
   2.753286633120000E+02   2.800350233020000E+02   2.848218319480000E+02
   2.896904644080000E+02   2.946423193440000E+02   2.996788193300000E+02
   3.048014112540000E+02   3.100115667380000E+02   3.153107825580000E+02
   3.207005810770000E+02   3.261825106800000E+02   3.317581462190000E+02
   3.374290894650000E+02   3.431969695720000E+02   3.490634435400000E+02
   3.550301966930000E+02   3.610989431640000E+02   3.672714263860000E+02
   3.735494195950000E+02   3.799347263350000E+02   3.864291809830000E+02
   3.930346492700000E+02   3.997530288180000E+02   4.065862496880000E+02
   4.135362749330000E+02   4.206051011590000E+02   4.277947591050000E+02
   4.351073142190000E+02   4.425448672570000E+02   4.501095548840000E+02
   4.578035502900000E+02   4.656290638080000E+02   4.735883435590000E+02
   4.816836760890000E+02   4.899173870310000E+02   4.982918417710000E+02
   5.068094461260000E+02   5.154726470410000E+02   5.242839332850000E+02
   5.332458361700000E+02   5.423609302770000E+02   5.516318341980000E+02
   5.610612112820000E+02   5.706517704070000E+02   5.804062667560000E+02
   5.903275026070000E+02   6.004183281380000E+02   6.106816422490000E+02
   6.211203933910000E+02   6.317375804160000E+02   6.425362534350000E+02
   6.535195146980000E+02   6.646905194840000E+02   6.760524770070000E+02
   6.876086513370000E+02   6.993623623390000E+02   7.113169866270000E+02
   7.234759585330000E+02   7.358427710950000E+02   7.484209770579999E+02
   7.612141898970000E+02   7.742260848560001E+02   7.874604000000000E+02
   8.009209372910000E+02   8.146115636810000E+02   8.285362122220000E+02
   8.426988831970000E+02   8.571036452670000E+02   8.717546366410000E+02
   8.866560662650000E+02   9.018122150320000E+02
    </PP_R>
    <PP_RAB>
   7.370657676680000E-07   7.496648783070000E-07   7.624793531590000E-07
   7.755128735750000E-07   7.887691838320000E-07   8.022520922130000E-07
   8.159654720950000E-07   8.299132630680000E-07   8.440994720620000E-07
   8.585281745010000E-07   8.732035154700000E-07   8.881297109120000E-07
   9.033110488350000E-07   9.187518905410000E-07   9.344566718880000E-07
   9.504299045530000E-07   9.666761773390000E-07   9.832001574839999E-07
   1.000006592010000E-06   1.017100309080000E-06   1.034486219380000E-06
   1.052169317560000E-06   1.070154683620000E-06   1.088447484410000E-06
   1.107052975110000E-06   1.125976500700000E-06   1.145223497550000E-06
   1.164799494950000E-06   1.184710116710000E-06   1.204961082760000E-06
   1.225558210810000E-06   1.246507418010000E-06   1.267814722680000E-06
   1.289486245990000E-06   1.311528213740000E-06   1.333946958160000E-06
   1.356748919740000E-06   1.379940649030000E-06   1.403528808560000E-06
   1.427520174760000E-06   1.451921639880000E-06   1.476740213990000E-06
   1.501983026990000E-06   1.527657330650000E-06   1.553770500690000E-06
   1.580330038940000E-06   1.607343575430000E-06   1.634818870620000E-06
   1.662763817640000E-06   1.691186444520000E-06   1.720094916550000E-06
   1.749497538560000E-06   1.779402757360000E-06   1.809819164140000E-06
   1.840755496940000E-06   1.872220643180000E-06   1.904223642170000E-06
   1.936773687780000E-06   1.969880130980000E-06   2.003552482630000E-06
   2.037800416140000E-06   2.072633770270000E-06   2.108062551970000E-06
   2.144096939260000E-06   2.180747284110000E-06   2.218024115450000E-06
   2.255938142200000E-06   2.294500256320000E-06   2.333721535970000E-06
   2.373613248650000E-06   2.414186854490000E-06   2.455454009490000E-06
   2.497426568920000E-06   2.540116590670000E-06   2.583536338770000E-06
   2.627698286860000E-06   2.672615121830000E-06   2.718299747400000E-06
   2.764765287880000E-06   2.812025091930000E-06   2.860092736380000E-06
   2.908982030120000E-06   2.958707018110000E-06   3.009281985380000E-06
   3.060721461120000E-06   3.113040222920000E-06   3.166253300930000E-06
   3.220375982240000E-06   3.275423815260000E-06   3.331412614150000E-06
   3.388358463430000E-06   3.446277722520000E-06   3.505187030510000E-06
   3.565103310910000E-06   3.626043776510000E-06   3.688025934310000E-06
   3.751067590600000E-06   3.815186856020000E-06   3.880402150800000E-06
   3.946732210020000E-06   4.014196089040000E-06   4.082813168910000E-06
   4.152603162010000E-06   4.223586117630000E-06   4.295782427820000E-06
   4.369212833170000E-06   4.443898428820000E-06   4.519860670500000E-06
   4.597121380680000E-06   4.675702754880000E-06   4.755627368000000E-06
   4.836918180840000E-06   4.919598546670000E-06   5.003692217970000E-06
   5.089223353210000E-06   5.176216523850000E-06   5.264696721320000E-06
   5.354689364290000E-06   5.446220305900000E-06   5.539315841210000E-06
   5.634002714770000E-06   5.730308128290000E-06   5.828259748450000E-06
   5.927885714850000E-06   6.029214648100000E-06   6.132275658060000E-06
   6.237098352150000E-06   6.343712843900000E-06   6.452149761590000E-06
   6.562440257060000E-06   6.674616014620000E-06   6.788709260210000E-06
   6.904752770600000E-06   7.022779882840000E-06   7.142824503850000E-06
   7.264921120120000E-06   7.389104807650000E-06   7.515411242000000E-06
   7.643876708570000E-06   7.774538113010000E-06   7.907432991800000E-06
   8.042599523080000E-06   8.180076537559999E-06   8.319903529750000E-06
   8.462120669219999E-06   8.606768812209999E-06   8.753889513330000E-06
   8.903525037510001E-06   9.055718372150000E-06   9.210513239430000E-06
   9.367954108950001E-06   9.528086210390000E-06   9.690955546630000E-06
   9.856608906879999E-06   1.002509388010000E-05   1.019645886880000E-05
   1.037075310290000E-05   1.054802665360000E-05   1.072833044830000E-05
   1.091171628470000E-05   1.109823684610000E-05   1.128794571610000E-05
   1.148089739450000E-05   1.167714731260000E-05   1.187675184910000E-05
   1.207976834660000E-05   1.228625512780000E-05   1.249627151230000E-05
   1.270987783390000E-05   1.292713545740000E-05   1.314810679670000E-05