<UPF version="2.0.1">
  <PP_INFO>
    Generated by new atomic code, or converted to UPF format
    Author: 
    Generation date: 
    Pseudopotential type: US
    Element: Mg
    Functional:  SLA  PZ   NOGX NOGC
    Suggested minimum cutoff for wavefunctions:   0. Ry
    Suggested minimum cutoff for charge density:   0. Ry
    The Pseudo was generated with a Non-Relativistic Calculation
    L component and cutoff radius for Local Potential:  0   0.0000
    Valence configuration: 
    nl pn  l   occ       Rcut    Rcut US       E pseu
    2S  1  0  2.00      0.000      0.000     0.000000
    2P  2  1  6.00      0.000      0.000     0.000000
    3S  1  0  1.70      0.000      0.000     0.000000
    Generation configuration: not available.
  </PP_INFO>
    <!-- END OF HUMAN READABLE SECTION -->
  <PP_HEADER generated="Generated by new atomic code, or converted to UPF format" author="" date="" comment="" element="Mg" pseudo_type="US" relativistic="no" is_ultrasoft="true" is_paw="false" is_coulomb="false" has_so="false" has_wfc="false" has_gipaw="false" paw_as_gipaw="false" core_correction="false" functional=" SLA  PZ   NOGX NOGC" z_valence="10.000000000000000" total_psenergy="-124.80620651600000" wfc_cutoff="0.0000000000000000" rho_cutoff="0.0000000000000000" l_max="2" l_max_rho="0" l_local="0" mesh_size="821" number_of_wfc="3" number_of_proj="7"/>
  <PP_MESH>
    <PP_R>
   0.000000000000000E+00   4.768375946890000E-09   9.657463905570000E-09
   1.467031971520000E-08   1.981007657380000E-08   2.507994699670000E-08
   3.048322482460000E-08   3.602328728190000E-08   4.170359708800000E-08
   4.752770462150000E-08   5.349925013910000E-08   5.962196605120000E-08
   6.589967925460000E-08   7.233631352439999E-08   7.893589196639999E-08
   8.570253953210000E-08   9.264048559650000E-08   9.975406660170000E-08
   1.070477287670000E-07   1.145260308700000E-07   1.221936470910000E-07
   1.300553699420000E-07   1.381161132540000E-07   1.463809152540000E-07
   1.548549417130000E-07   1.635434891730000E-07   1.724519882590000E-07
   1.815860070740000E-07   1.909512546750000E-07   2.005535846480000E-07
   2.103989987620000E-07   2.204936507210000E-07   2.308438500110000E-07
   2.414560658430000E-07   2.523369311980000E-07   2.634932469710000E-07
   2.749319862220000E-07   2.866602985370000E-07   2.986855144900000E-07
   3.110151502360000E-07   3.236569121960000E-07   3.366187018830000E-07
   3.499086208390000E-07   3.635349756950000E-07   3.775062833670000E-07
   3.918312763760000E-07   4.065189083090000E-07   4.215783594150000E-07
   4.370190423410000E-07   4.528506080170000E-07   4.690829516850000E-07
   4.857262190900000E-07   5.027908128150000E-07   5.202873987870000E-07
   5.382269129410000E-07   5.566205680590000E-07   5.754798607720001E-07
   5.948165787540000E-07   6.146428080820000E-07   6.349709407950000E-07
   6.558136826370000E-07   6.771840610020000E-07   6.990954330700000E-07
   7.215614941630000E-07   7.445962863010001E-07   7.682142069770000E-07
   7.924300181630000E-07   8.172588555260000E-07   8.427162379010000E-07
   8.688180769780000E-07   8.955806872570000E-07   9.230207962410000E-07
   9.511555548920000E-07   9.800025483480000E-07   1.009579806920000E-06
   1.039905817360000E-06   1.070999534410000E-06   1.102880392650000E-06
   1.135568318660000E-06   1.169083743460000E-06   1.203447615270000E-06
   1.238681412640000E-06   1.274807157840000E-06   1.311847430640000E-06
   1.349825382400000E-06   1.388764750590000E-06   1.428689873580000E-06
   1.469625705870000E-06   1.511597833680000E-06   1.554632490970000E-06
   1.598756575800000E-06   1.643997667150000E-06   1.690384042190000E-06
   1.737944693890000E-06   1.786709349230000E-06   1.836708487700000E-06
   1.887973360380000E-06   1.940536009490000E-06   1.994429288400000E-06
   2.049686882160000E-06   2.106343328560000E-06   2.164434039740000E-06
   2.223995324270000E-06   2.285064409900000E-06   2.347679466790000E-06
   2.411879631390000E-06   2.477705030890000E-06   2.545196808320000E-06
   2.614397148230000E-06   2.685349303080000E-06   2.758097620290000E-06
   2.832687569910000E-06   2.909165773100000E-06   2.987580031210000E-06
   3.067979355730000E-06   3.150413998830000E-06   3.234935484860000E-06
   3.321596642490000E-06   3.410451637780000E-06   3.501556007980000E-06
   3.594966696290000E-06   3.690742087440000E-06   3.788942044150000E-06
   3.889627944610000E-06   3.992862720770000E-06   4.098710897730000E-06
   4.207238634040000E-06   4.318513763090000E-06   4.432605835430000E-06
   4.549586162340000E-06   4.669527860320000E-06   4.792505896850000E-06
   4.918597137190000E-06   5.047880392470000E-06   5.180436468950000E-06
   5.316348218480000E-06   5.455700590320000E-06   5.598580684260000E-06
   5.745077804990000E-06   5.895283518000000E-06   6.049291706730000E-06
   6.207198631320000E-06   6.369102988730000E-06   6.535105974470000E-06
   6.705311345800000E-06   6.879825486620000E-06   7.058757473950000E-06
   7.242219146100000E-06   7.430325172600000E-06   7.623193125830000E-06
   7.820943554530000E-06   8.023700059180001E-06   8.231589369180000E-06
   8.444741422110000E-06   8.663289444960001E-06   8.887370037339999E-06
   9.117123256930000E-06   9.352692706960001E-06   9.594225626010000E-06
   9.841872980020000E-06   1.009578955660000E-05   1.035613406200000E-05
   1.062306921990000E-05   1.089676187350000E-05   1.117738308960000E-05
   1.146510826560000E-05   1.176011723910000E-05   1.206259440030000E-05
   1.237272880740000E-05   1.269071430430000E-05   1.301674964240000E-05
   1.335103860440000E-05   1.369379013170000E-05   1.404521845530000E-05
   1.440554322920000E-05   1.477498966820000E-05   1.515378868840000E-05
   1.554217705140000E-05   1.594039751260000E-05   1.634869897280000E-05
   1.676733663360000E-05   1.719657215730000E-05   1.763667383010000E-05
   1.808791672970000E-05   1.855058289770000E-05   1.902496151550000E-05
   1.951134908510000E-05   2.001004961480000E-05   2.052137480840000E-05
   2.104564426100000E-05   2.158318565790000E-05   2.213433498010000E-05
   2.269943671380000E-05   2.327884406600000E-05   2.387291918510000E-05
   2.448203338750000E-05   2.510656738930000E-05   2.574691154470000E-05
   2.640346608950000E-05   2.707664139180000E-05   2.776685820800000E-05
   2.847454794600000E-05   2.920015293510000E-05   2.994412670190000E-05
   3.070693425430000E-05   3.148905237190000E-05   3.229096990380000E-05
   3.311318807470000E-05   3.395622079770000E-05   3.482059499570000E-05
   3.570685093070000E-05   3.661554254150000E-05   3.754723779000000E-05
   3.850251901590000E-05   3.948198330130000E-05   4.048624284300000E-05
   4.151592533610000E-05   4.257167436570000E-05   4.365414980910000E-05
   4.476402824880000E-05   4.590200339510000E-05   4.706878651930000E-05
   4.826510689890000E-05   4.949171227310000E-05   5.074936931020000E-05
   5.203886408680000E-05   5.336100257900000E-05   5.471661116660000E-05
   5.610653714890000E-05   5.753164927500000E-05   5.899283828630000E-05
   6.049101747350000E-05   6.202712324750000E-05   6.360211572420000E-05
   6.521697932530001E-05   6.687272339310000E-05   6.857038282160000E-05
   7.031101870309999E-05   7.209571899170001E-05   7.392559918320000E-05
   7.580180301229999E-05   7.772550316749999E-05   7.969790202390000E-05
   8.172023239510000E-05   8.379375830350001E-05   8.591977577010000E-05
   8.809961362510000E-05   9.033463433810000E-05   9.262623486980000E-05
   9.497584754520000E-05   9.738494094869999E-05   9.985502084200000E-05
   1.023876311060000E-04   1.049843547030000E-04   1.076468146720000E-04
   1.103766751350000E-04   1.131756423450000E-04   1.160454657470000E-04
   1.189879390750000E-04   1.220049014700000E-04   1.250982386310000E-04
   1.282698839950000E-04   1.315218199440000E-04   1.348560790440000E-04
   1.382747453140000E-04   1.417799555330000E-04   1.453739005710000E-04
   1.490588267610000E-04   1.528370373020000E-04   1.567108936980000E-04
   1.606828172350000E-04   1.647552904960000E-04   1.689308589070000E-04
   1.732121323370000E-04   1.776017867190000E-04   1.821025657310000E-04
   1.867172825070000E-04   1.914488213930000E-04   1.963001397570000E-04
   2.012742698300000E-04   2.063743206050000E-04   2.116034797800000E-04
   2.169650157500000E-04   2.224622796490000E-04   2.280987074470000E-04
   2.338778220930000E-04   2.398032357230000E-04   2.458786519140000E-04
   2.521078679970000E-04   2.584947774370000E-04   2.650433722590000E-04
   2.717577455470000E-04   2.786420940050000E-04   2.857007205740000E-04
   2.929380371250000E-04   3.003585672170000E-04   3.079669489230000E-04
   3.157679377280000E-04   3.237664095060000E-04   3.319673635600000E-04
   3.403759257550000E-04   3.489973517150000E-04   3.578370301120000E-04
   3.669004860330000E-04   3.761933844340000E-04   3.857215336770000E-04
   3.954908891670000E-04   4.055075570690000E-04   4.157777981250000E-04
   4.263080315720000E-04   4.371048391480000E-04   4.481749692090000E-04
   4.595253409460000E-04   4.711630487120000E-04   4.830953664530000E-04
   4.953297522550000E-04   5.078738530090000E-04   5.207355091850000E-04
   5.339227597370000E-04   5.474438471269999E-04   5.613072224730000E-04
   5.755215508370000E-04   5.900957166370000E-04   6.050388292010000E-04
   6.203602284600000E-04   6.360694907880000E-04   6.521764349850000E-04
   6.686911284160000E-04   6.856238933010000E-04   7.029853131700000E-04
   7.207862394760000E-04   7.390377983770000E-04   7.577513976910000E-04
   7.769387340270000E-04   7.966118000950000E-04   8.167828922010000E-04
   8.374646179360000E-04   8.586699040490000E-04   8.804120045370000E-04
   9.027045089190000E-04   9.255613507360000E-04   9.489968162590000E-04
   9.730255534160000E-04   9.976625809500000E-04   1.022923297810000E-03
   1.048823492750000E-03   1.075379354260000E-03   1.102607480590000E-03
   1.130524890230000E-03   1.159149032460000E-03   1.188497798300000E-03
   1.218589531680000E-03   1.249443040920000E-03   1.281077610470000E-03
   1.313513012950000E-03   1.346769521560000E-03   1.380867922700000E-03
   1.415829528960000E-03   1.451676192510000E-03   1.488430318660000E-03
   1.526114879940000E-03   1.564753430440000E-03   1.604370120500000E-03
   1.644989711840000E-03   1.686637593030000E-03   1.729339795360000E-03
   1.773123009080000E-03   1.818014600140000E-03   1.864042627230000E-03
   1.911235859380000E-03   1.959623793880000E-03   2.009236674780000E-03
   2.060105511740000E-03   2.112262099440000E-03   2.165739037450000E-03
   2.220569750580000E-03   2.276788509820000E-03   2.334430453730000E-03
   2.393531610400000E-03   2.454128919980000E-03   2.516260257740000E-03
   2.579964457810000E-03   2.645281337390000E-03   2.712251721640000E-03
   2.780917469240000E-03   2.851321498520000E-03   2.923507814290000E-03
   2.997521535340000E-03   3.073408922650000E-03   3.151217408330000E-03
   3.230995625190000E-03   3.312793437230000E-03   3.396661970750000E-03
   3.482653646290000E-03   3.570822211470000E-03   3.661222774500000E-03
   3.753911838680000E-03   3.848947337690000E-03   3.946388671810000E-03
   4.046296745050000E-03   4.148734003200000E-03   4.253764472900000E-03
   4.361453801590000E-03   4.471869298610000E-03   4.585079977250000E-03
   4.701156597860000E-03   4.820171712120000E-03   4.942199708340000E-03
   5.067316857980000E-03   5.195601363360000E-03   5.327133406440000E-03
   5.461995199050000E-03   5.600271034200000E-03   5.742047338770000E-03
   5.887412727590000E-03   6.036458058740000E-03   6.189276490410000E-03
   6.345963539100000E-03   6.506617139310000E-03   6.671337704780000E-03
   6.840228191210000E-03   7.013394160660000E-03   7.190943847500000E-03
   7.372988226060000E-03   7.559641080000000E-03   7.751019073440000E-03
   7.947241823849999E-03   8.148431976830000E-03   8.354715282779999E-03
   8.566220675490000E-03   8.783080352700000E-03   9.005429858790000E-03
   9.233408169410000E-03   9.467157778449999E-03   9.706824787010000E-03
   9.952558994780000E-03   1.020451399360000E-02   1.046284726360000E-02
   1.072772027150000E-02   1.099929857150000E-02   1.127775190890000E-02
   1.156325432610000E-02   1.185598427140000E-02   1.215612471060000E-02
   1.246386324110000E-02   1.277939220960000E-02   1.310290883200000E-02
   1.343461531670000E-02   1.377471899100000E-02   1.412343243080000E-02
   1.448097359340000E-02   1.484756595360000E-02   1.522343864360000E-02
   1.560882659600000E-02   1.600397069090000E-02   1.640911790620000E-02
   1.682452147210000E-02   1.725044102930000E-02   1.768714279140000E-02
   1.813489971130000E-02   1.859399165160000E-02   1.906470555970000E-02
   1.954733564700000E-02   2.004218357320000E-02   2.054955863430000E-02
   2.106977795630000E-02   2.160316669300000E-02   2.215005823000000E-02
   2.271079439210000E-02   2.328572565770000E-02   2.387521137760000E-02
   2.447961999950000E-02   2.509932929860000E-02   2.573472661320000E-02
   2.638620908750000E-02   2.705418391910000E-02   2.773906861410000E-02
   2.844129124760000E-02   2.916129073180000E-02   2.989951708970000E-02
   3.065643173680000E-02   3.143250776950000E-02   3.222823026040000E-02
   3.304409656210000E-02   3.388061661760000E-02   3.473831327910000E-02
   3.561772263490000E-02   3.651939434460000E-02   3.744389198230000E-02
   3.839179338910000E-02   3.936369103430000E-02   4.036019238550000E-02
   4.138192028850000E-02   4.242951335650000E-02   4.350362636930000E-02
   4.460493068250000E-02   4.573411464710000E-02   4.689188403980000E-02
   4.807896250430000E-02   4.929609200310000E-02   5.054403328190000E-02
   5.182356634460000E-02   5.313549094100000E-02   5.448062706670000E-02
   5.585981547550000E-02   5.727391820510000E-02   5.872381911580000E-02
   6.021042444270000E-02   6.173466336270000E-02   6.329748857460001E-02
   6.489987689520001E-02   6.654282986920000E-02   6.822737439569999E-02
   6.995456337000000E-02   7.172547634130000E-02   7.354122018790001E-02
   7.540292980890000E-02   7.731176883330000E-02   7.926893034760001E-02
   8.127563764159999E-02   8.333314497250000E-02   8.544273834960001E-02
   8.760573633719999E-02   8.982349087960000E-02   9.209738814550000E-02
   9.442884939479999E-02   9.681933186659999E-02   9.927032969020000E-02
   1.017833748190000E-01   1.043600379890000E-01   1.070019296970000E-01
   1.097107012120000E-01   1.124880456040000E-01   1.153356988040000E-01
   1.182554406890000E-01   1.212490961910000E-01   1.243185364430000E-01
   1.274656799440000E-01   1.306924937630000E-01   1.340009947630000E-01
   1.373932508640000E-01   1.408713823370000E-01   1.444375631280000E-01
   1.480940222150000E-01   1.518430450050000E-01   1.556869747590000E-01
   1.596282140570000E-01   1.636692263030000E-01   1.678125372620000E-01
   1.720607366360000E-01   1.764164796900000E-01   1.808824889050000E-01
   1.854615556800000E-01   1.901565420830000E-01   1.949703826330000E-01
   1.999060861360000E-01   2.049667375690000E-01   2.101555000020000E-01
   2.154756165820000E-01   2.209304125540000E-01   2.265232973440000E-01
   2.322577666860000E-01   2.381374048110000E-01   2.441658866840000E-01
   2.503469803010000E-01   2.566845490490000E-01   2.631825541130000E-01
   2.698450569590000E-01   2.766762218670000E-01   2.836803185380000E-01
   2.908617247610000E-01   2.982249291480000E-01   3.057745339410000E-01
   3.135152578890000E-01   3.214519391970000E-01   3.295895385490000E-01
   3.379331422100000E-01   3.464879652020000E-01   3.552593545700000E-01
   3.642527927170000E-01   3.734739008340000E-01   3.829284424150000E-01
   3.926223268550000E-01   4.025616131480000E-01   4.127525136720000E-01
   4.232013980710000E-01   4.339147972380000E-01   4.448994073950000E-01
   4.561620942830000E-01   4.677098974470000E-01   4.795500346400000E-01
   4.916899063320000E-01   5.041371003400000E-01   5.168993965649999E-01
   5.299847718560000E-01   5.434014050000000E-01   5.571576818290001E-01
   5.712622004640000E-01   5.857237766880000E-01   6.005514494580000E-01
   6.157544865500000E-01   6.313423903590000E-01   6.473249038310001E-01
   6.637120165590000E-01   6.805139710200000E-01   6.977412689830000E-01
   7.154046780710001E-01   7.335152384880000E-01   7.520842699250000E-01
   7.711233786310000E-01   7.906444646690000E-01   8.106597293530000E-01
   8.311816828740000E-01   8.522231521219999E-01   8.737972887000000E-01
   8.959175771460000E-01   9.185978433590000E-01   9.418522632460000E-01
   9.656953715740000E-01   9.901420710640000E-01   1.015207641700000E+00
   1.040907750270000E+00   1.067258460190000E+00   1.094276241510000E+00
   1.121977981220000E+00   1.150380993810000E+00   1.179503032090000E+00
   1.209362298270000E+00   1.239977455380000E+00   1.271367638880000E+00
   1.303552468650000E+00   1.336552061280000E+00   1.370387042560000E+00
   1.405078560480000E+00   1.440648298350000E+00   1.477118488430000E+00
   1.514511925760000E+00   1.552851982460000E+00   1.592162622330000E+00
   1.632468415770000E+00   1.673794555240000E+00   1.716166870910000E+00
   1.759611846850000E+00   1.804156637600000E+00   1.849829085090000E+00
   1.896657736100000E+00   1.944671860050000E+00   1.993901467340000E+00
   2.044377328060000E+00   2.096130991290000E+00   2.149194804740000E+00
   2.203601935020000E+00   2.259386388360000E+00   2.316583031860000E+00
   2.375227615290000E+00   2.435356793410000E+00   2.497008148920000E+00
   2.560220215930000E+00   2.625032504030000E+00   2.691485523020000E+00
   2.759620808200000E+00   2.829480946330000E+00   2.901109602270000E+00
   2.974551546280000E+00   3.049852681950000E+00   3.127060074940000E+00
   3.206221982390000E+00   3.287387883070000E+00   3.370608508310000E+00
   3.455935873710000E+00   3.543423311640000E+00   3.633125504620000E+00
   3.725098519410000E+00   3.819399842170000E+00   3.916088414270000E+00
   4.015224669230000E+00   4.116870570430000E+00   4.221089649880000E+00
   4.327947047880000E+00   4.437509553780000E+00   4.549845647730000E+00
   4.665025543440000E+00   4.783121232090000E+00   4.904206527330000E+00
   5.028357111420000E+00   5.155650582500000E+00   5.286166503150000E+00
   5.419986450060000E+00   5.557194065050000E+00   5.697875107350000E+00
   5.842117507200000E+00   5.990011420780000E+00   6.141649286610000E+00
   6.297125883280000E+00   6.456538388740000E+00   6.619986440990000E+00
   6.787572200390000E+00   6.959400413480000E+00   7.135578478490000E+00
   7.316216512450000E+00   7.501427420020000E+00   7.691326964030000E+00
   7.886033837880000E+00   8.085669739720000E+00   8.290359448469999E+00
   8.500230901860000E+00   8.715415276400000E+00   8.936047069310000E+00
   9.162264182650000E+00   9.394208009480000E+00   9.632023522240001E+00
   9.875859363369999E+00   1.012586793820000E+01   1.038220551020000E+01
   1.064503229880000E+01   1.091451257920000E+01   1.119081478540000E+01
   1.147411161520000E+01   1.176458013840000E+01   1.206240190730000E+01
   1.236776307020000E+01   1.268085448770000E+01   1.300187185220000E+01
   1.333101580990000E+01   1.366849208660000E+01   1.401451161600000E+01
   1.436929067140000E+01   1.473305100130000E+01   1.510601996790000E+01
   1.548843068880000E+01   1.588052218320000E+01   1.628253952100000E+01
   1.669473397620000E+01   1.711736318370000E+01   1.755069130050000E+01
   1.799498917090000E+01   1.845053449530000E+01   1.891761200460000E+01
   1.939651363730000E+01   1.988753872250000E+01   2.039099416700000E+01
   2.090719464670000E+01   2.143646280380000E+01   2.197912944810000E+01
   2.253553376380000E+01   2.310602352190000E+01   2.369095529700000E+01
   2.429069469040000E+01   2.490561655890000E+01   2.553610524860000E+01
   2.618255483540000E+01   2.684536937150000E+01   2.752496313740000E+01
   2.822176090150000E+01   2.893619818490000E+01   2.966872153420000E+01
   3.041978880040000E+01   3.118986942500000E+01   3.197944473340000E+01
   3.278900823590000E+01   3.361906593600000E+01   3.447013664690000E+01
   3.534275231540000E+01   3.623745835470000E+01   3.715481398520000E+01
   3.809539258400000E+01   3.905978204350000E+01   4.004858513840000E+01
   4.106241990270000E+01   4.210192001640000E+01   4.316773520070000E+01
   4.426053162480000E+01   4.538099232210000E+01   4.652981761710000E+01
   4.770772556280000E+01   4.891545239010000E+01   5.015375296760000E+01
   5.142340127350000E+01   5.272519087930000E+01   5.405993544590000E+01
   5.542846923200000E+01   5.683164761590000E+01   5.827034762960000E+01
   5.974546850760000E+01   6.125793224850000E+01   6.280868419120000E+01
   6.439869360620000E+01   6.602895430130000E+01   6.770048524230000E+01
   6.941433119049999E+01   7.117156335550000E+01   7.297328006450000E+01
   7.482060744920000E+01   7.671470014920000E+01   7.865674203430000E+01
   8.064794694370001E+01   8.268955944539999E+01   8.478285561360001E+01
   8.692914382670000E+01   8.912976558450001E+01   9.138609634730000E+01
   9.369954639540001E+01   9.607156171030000E+01   9.850362487869999E+01
   1.009972560190000E+02   1.035540137330000E+02   1.061754960760000E+02
   1.088633415610000E+02   1.116192301780000E+02   1.144448844470000E+02
   1.173420704950000E+02   1.203125991570000E+02   1.233583271100000E+02
   1.264811580340000E+02   1.296830437980000E+02   1.329659856870000E+02
   1.363320356450000E+02   1.397832975630000E+02   1.433219285930000E+02
   1.469501404940000E+02   1.506702010160000E+02
    </PP_R>
    <PP_RAB>
   4.709019597880000E-09   4.828228996550000E-09   4.950456195520000E-09
   5.075777590760000E-09   5.204271512220000E-09   5.336018272800000E-09
   5.471100218490000E-09   5.609601779920000E-09   5.751609525080000E-09
   5.897212213410000E-09   6.046500851360000E-09   6.199568749160000E-09
   6.356511579240000E-09   6.517427435990000E-09   6.682416897040000E-09
   6.851583086180000E-09   7.025031737790000E-09   7.202871262920000E-09
   7.385212817060000E-09   7.572170369630001E-09   7.763860775160001E-09
   7.960403846420001E-09   8.161922429220000E-09   8.368542479220001E-09
   8.580393140700000E-09   8.797606827200001E-09   9.020319304359999E-09
   9.248669774720000E-09   9.482800964760001E-09   9.722859214090000E-09
   9.968994566939999E-09   1.022136086590000E-08   1.048011584810000E-08
   1.074542124400000E-08   1.101744287780000E-08   1.129635077220000E-08
   1.158231925340000E-08   1.187552706130000E-08   1.217615746010000E-08
   1.248439835380000E-08   1.280044240280000E-08   1.312448714500000E-08
   1.345673511890000E-08   1.379739399030000E-08   1.414667668200000E-08
   1.450480150730000E-08   1.487199230560000E-08   1.524847858330000E-08
   1.563449565640000E-08   1.603028479830000E-08   1.643609339000000E-08
   1.685217507510000E-08   1.727878991820000E-08   1.771620456750000E-08
   1.816469242140000E-08   1.862453379930000E-08   1.909601611720000E-08
   1.957943406670000E-08   2.007508979990000E-08   2.058329311770000E-08
   2.110436166380000E-08   2.163862112290000E-08   2.218640542460000E-08
   2.274805695200000E-08   2.332392675540000E-08   2.391437477230000E-08
   2.451977005190000E-08   2.514049098600000E-08   2.577692554540000E-08
   2.642947152230000E-08   2.709853677930000E-08   2.778453950390000E-08
   2.848790847020000E-08   2.920908330660000E-08   2.994851477090000E-08
   3.070666503180000E-08   3.148400795800000E-08   3.228102941410000E-08
   3.309822756440000E-08   3.393611318430000E-08   3.479520997970000E-08
   3.567605491400000E-08   3.657919854400000E-08   3.750520536380000E-08
   3.845465415790000E-08   3.942813836260000E-08   4.042626643730000E-08
   4.144966224450000E-08   4.249896543990000E-08   4.357483187220000E-08
   4.467793399290000E-08   4.580896127670000E-08   4.696862065250000E-08
   4.815763694520000E-08   4.937675332860000E-08   5.062673179030000E-08
   5.190835360730000E-08   5.322241983510000E-08   5.456975180780000E-08
   5.595119165180000E-08   5.736760281200000E-08   5.881987059140000E-08
   6.030890270460001E-08   6.183562984530000E-08   6.340100626750000E-08
   6.500601038250000E-08   6.665164537020000E-08   6.833893980590000E-08
   7.006894830359999E-08   7.184275217490000E-08   7.366146010500001E-08
   7.552620884560000E-08   7.743816392530000E-08   7.939852037820000E-08
   8.140850349110000E-08   8.346936956860000E-08   8.558240671940001E-08
   8.774893566019999E-08   8.997031054240000E-08   9.224791979740000E-08
   9.458318700520000E-08   9.697757178379999E-08   9.943257070170000E-08
   1.019497182130000E-07   1.045305876170000E-07   1.071767920410000E-07
   1.098899854490000E-07   1.126718636750000E-07   1.155241654840000E-07
   1.184486736560000E-07   1.214472161060000E-07   1.245216670190000E-07
   1.276739480280000E-07   1.309060294100000E-07   1.342199313220000E-07
   1.376177250600000E-07   1.411015343560000E-07   1.446735367040000E-07
   1.483359647230000E-07   1.520911075480000E-07   1.559413122660000E-07
   1.598889853810000E-07   1.639365943160000E-07   1.680866689600000E-07
   1.723418032430000E-07   1.767046567630000E-07   1.811779564470000E-07
   1.857644982500000E-07   1.904671489130000E-07   1.952888477440000E-07
   2.002326084610000E-07   2.053015210770000E-07   2.104987538270000E-07
   2.158275551510000E-07   2.212912557220000E-07   2.268932705310000E-07
   2.326371010210000E-07   2.385263372720000E-07   2.445646602480000E-07
   2.507558440980000E-07   2.571037585140000E-07   2.636123711480000E-07
   2.702857500950000E-07   2.771280664350000E-07   2.841435968380000E-07
   2.913367262380000E-07   2.987119505760000E-07   3.062738796070000E-07
   3.140272397820000E-07   3.219768772050000E-07   3.301277606580000E-07
   3.384849847070000E-07   3.470537728910000E-07   3.558394809800000E-07
   3.648476003280000E-07   3.740837613040000E-07   3.835537368070000E-07
   3.932634458820000E-07   4.032189574130000E-07   4.134264939170000E-07
   4.238924354390000E-07   4.346233235310000E-07   4.456258653490000E-07
   4.569069378390000E-07   4.684735920390000E-07   4.803330574840000E-07
   4.924927467260000E-07   5.049602599670000E-07   5.177433898080000E-07
   5.308501261220000E-07   5.442886610450000E-07   5.580673941000000E-07
   5.721949374420000E-07   5.866801212470000E-07   6.015319992250000E-07
   6.167598542850000E-07   6.323732043310000E-07   6.483818082150000E-07
   6.647956718360000E-07   6.816250543920000E-07   6.988804747970000E-07
   7.165727182490000E-07   7.347128429760000E-07   7.533121871460000E-07
   7.723823759559999E-07   7.919353288950000E-07   8.119832671930000E-07
   8.325387214660000E-07   8.536145395410000E-07   8.752238944910000E-07
   8.973802928660000E-07   9.200975831360000E-07   9.433899643470000E-07
   9.672719949960001E-07   9.917586021300000E-07   1.016865090670000E-06
   1.042607153000000E-06   1.069000878740000E-06   1.096062764830000E-06
   1.123809725820000E-06   1.152259104470000E-06   1.181428682580000E-06
   1.211336692070000E-06   1.242001826430000E-06   1.273443252350000E-06
   1.305680621770000E-06   1.338734084070000E-06   1.372624298760000E-06
   1.407372448320000E-06   1.443000251470000E-06   1.479529976760000E-06
   1.516984456440000E-06   1.555387100780000E-06   1.594761912700000E-06
   1.635133502730000E-06   1.676527104430000E-06   1.718968590140000E-06
   1.762484487170000E-06   1.807101994390000E-06   1.852848999180000E-06
   1.899754094910000E-06   1.947846598780000E-06   1.997156570200000E-06
   2.047714829480000E-06   2.099552977180000E-06   2.152703413850000E-06
   2.207199360220000E-06   2.263074878050000E-06   2.320364891340000E-06
   2.379105208230000E-06   2.439332543310000E-06   2.501084540650000E-06
   2.564399797240000E-06   2.629317887180000E-06   2.695879386390000E-06
   2.764125897970000E-06   2.834100078220000E-06   2.905845663280000E-06
   2.979407496470000E-06   3.054831556340000E-06   3.132164985370000E-06
   3.211456119480000E-06   3.292754518200000E-06   3.376110995690000E-06
   3.461577652450000E-06   3.549207907920000E-06   3.639056533880000E-06
   3.731179688630000E-06   3.825634952140000E-06   3.922481362040000E-06
   4.021779450470000E-06   4.123591281990000E-06   4.227980492280000E-06
   4.335012328020000E-06   4.444753687580000E-06   4.557273162880000E-06
   4.672641082260000E-06   4.790929554430000E-06   4.912212513520000E-06
   5.036565765340000E-06   5.164067034720000E-06   5.294796014100000E-06
   5.428834413350000E-06   5.566266010830000E-06   5.707176705770000E-06
   5.851654571930000E-06   5.999789912680000E-06   6.151675317440000E-06
   6.307405719530000E-06   6.467078455520000E-06   6.630793326060000E-06
   6.798652658280000E-06   6.970761369730000E-06   7.147227033950000E-06
   7.328159947730000E-06   7.513673200030000E-06   7.703882742669999E-06
   7.898907462810001E-06   8.098869257239999E-06   8.303893108599999E-06
   8.514107163469999E-06   8.729642812470000E-06   8.950634772400000E-06
   9.177221170430000E-06   9.409543630440000E-06   9.647747361530001E-06
   9.891981248770000E-06   1.014239794630000E-05   1.039915397270000E-05
   1.066240980890000E-05   1.093232999830000E-05   1.120908324980000E-05
   1.149284254330000E-05   1.178378523740000E-05   1.208209318090000E-05
   1.238795282600000E-05   1.270155534480000E-05   1.302309674920000E-05
   1.335277801300000E-05   1.369080519780000E-05   1.403738958140000E-05
   1.439274779050000E-05   1.475710193550000E-05   1.513067974960000E-05
   1.551371473110000E-05   1.590644628930000E-05   1.630911989420000E-05
   1.672198723000000E-05   1.714530635210000E-05   1.757934184890000E-05
   1.802436500650000E-05   1.848065397900000E-05   1.894849396190000E-05
   1.942817737030000E-05   1.992000402200000E-05   2.042428132460000E-05
   2.094132446800000E-05   2.147145662080000E-05   2.201500913300000E-05
   2.257232174260000E-05   2.314374278800000E-05   2.372962942610000E-05
   2.433034785500000E-05   2.494627354330000E-05   2.557779146470000E-05
   2.622529633840000E-05   2.688919287600000E-05   2.756989603450000E-05
   2.826783127540000E-05   2.898343483110000E-05   2.971715397710000E-05