<UPF version="2.0.1">
  <PP_INFO>
    Generated by new atomic code, or converted to UPF format
    Author: 
    Generation date: 
    Pseudopotential type: US
    Element: Mn
    Functional:  SLA  PZ   NOGX NOGC
    Suggested minimum cutoff for wavefunctions:   0. Ry
    Suggested minimum cutoff for charge density:   0. Ry
    The Pseudo was generated with a Non-Relativistic Calculation
    L component and cutoff radius for Local Potential:  0   0.0000
    Valence configuration: 
    nl pn  l   occ       Rcut    Rcut US       E pseu
    3S  1  0  2.00      0.000      0.000     0.000000
    3P  2  1  6.00      0.000      0.000     0.000000
    4S  1  0  1.50      0.000      0.000     0.000000
    3D  3  2  5.00      0.000      0.000     0.000000
    4P  2  1  0.00      0.000      0.000     0.000000
    Generation configuration: not available.
  </PP_INFO>
    <!-- END OF HUMAN READABLE SECTION -->
  <PP_HEADER generated="Generated by new atomic code, or converted to UPF format" author="" date="" comment="" element="Mn" pseudo_type="US" relativistic="no" is_ultrasoft="true" is_paw="false" is_coulomb="false" has_so="false" has_wfc="false" has_gipaw="false" paw_as_gipaw="false" core_correction="true" functional=" SLA  PZ   NOGX NOGC" z_valence="15.000000000000000" total_psenergy="-210.16687723199999" wfc_cutoff="0.0000000000000000" rho_cutoff="0.0000000000000000" l_max="2" l_max_rho="0" l_local="0" mesh_size="859" number_of_wfc="5" number_of_proj="6"/>
  <PP_MESH>
    <PP_R>
   0.000000000000000E+00   1.694832363200000E-06   3.418635520310000E-06
   5.171904686640000E-06   6.955143542470000E-06   8.768864377840000E-06
   1.061358823960000E-05   1.248984508130000E-05   1.439817391520000E-05
   1.633912296720000E-05   1.831324983440000E-05   2.032112164530000E-05
   2.236331522260000E-05   2.444041724900000E-05   2.655302443570000E-05
   2.870174369380000E-05   3.088719230890000E-05   3.310999811810000E-05
   3.537079969030000E-05   3.767024651030000E-05   4.000899916440000E-05
   4.238772953130000E-05   4.480712097390000E-05   4.726786853670000E-05
   4.977067914490000E-05   5.231627180740000E-05   5.490537782390000E-05
   5.753874099430000E-05   6.021711783290000E-05   6.294127778560000E-05
   6.571200345090000E-05   6.853009080450000E-05   7.139634942850000E-05
   7.431160274350000E-05   7.727668824529999E-05   8.029245774560001E-05
   8.335977761680000E-05   8.647952904029999E-05   8.965260826040000E-05
   9.287992684140000E-05   9.616241192950000E-05   9.950100651910001E-05
   1.028966697240000E-04   1.063503770520000E-04   1.098631206870000E-04
   1.134359097720000E-04   1.170697707000000E-04   1.207657474090000E-04
   1.245249016820000E-04   1.283483134500000E-04   1.322370811070000E-04
   1.361923218200000E-04   1.402151718530000E-04   1.443067868930000E-04
   1.484683423820000E-04   1.527010338530000E-04   1.570060772790000E-04
   1.613847094130000E-04   1.658381881530000E-04   1.703677928970000E-04
   1.749748249120000E-04   1.796606077100000E-04   1.844264874250000E-04
   1.892738332030000E-04   1.942040375910000E-04   1.992185169430000E-04
   2.043187118220000E-04   2.095060874130000E-04   2.147821339510000E-04
   2.201483671420000E-04   2.256063285990000E-04   2.311575862900000E-04
   2.368037349850000E-04   2.425463967110000E-04   2.483872212250000E-04
   2.543278864820000E-04   2.603700991210000E-04   2.665155949530000E-04
   2.727661394590000E-04   2.791235283000000E-04   2.855895878310000E-04
   2.921661756260000E-04   2.988551810100000E-04   3.056585256060000E-04
   3.125781638840000E-04   3.196160837200000E-04   3.267743069740000E-04
   3.340548900640000E-04   3.414599245610000E-04   3.489915377890000E-04
   3.566518934330000E-04   3.644431921670000E-04   3.723676722780000E-04
   3.804276103170000E-04   3.886253217490000E-04   3.969631616170000E-04
   4.054435252210000E-04   4.140688488050000E-04   4.228416102580000E-04
   4.317643298250000E-04   4.408395708310000E-04   4.500699404160000E-04
   4.594580902870000E-04   4.690067174770000E-04   4.787185651240000E-04
   4.885964232520000E-04   4.986431295780000E-04   5.088615703289999E-04
   5.192546810630000E-04   5.298254475200001E-04   5.405769064770000E-04
   5.515121466200000E-04   5.626343094310000E-04   5.739465900940000E-04
   5.854522384070000E-04   5.971545597210000E-04   6.090569158860000E-04
   6.211627262180000E-04   6.334754684830000E-04   6.459986798930000E-04
   6.587359581240000E-04   6.716909623510000E-04   6.848674142940000E-04
   6.982690992939999E-04   7.118998673960000E-04   7.257636344560000E-04
   7.398643832640000E-04   7.542061646940000E-04   7.687930988630000E-04
   7.836293763130000E-04   7.987192592200000E-04   8.140670826170000E-04
   8.296772556340000E-04   8.455542627730000E-04   8.617026651920000E-04
   8.781271020130000E-04   8.948322916590000E-04   9.118230332080000E-04
   9.291042077710000E-04   9.466807798950000E-04   9.645577989900000E-04
   9.827404007770001E-04   1.001233808770000E-03   1.020043335750000E-03
   1.039174385360000E-03   1.058632453550000E-03   1.078423130270000E-03
   1.098552100980000E-03   1.119025148350000E-03   1.139848153900000E-03
   1.161027099670000E-03   1.182568069960000E-03   1.204477253070000E-03
   1.226760943090000E-03   1.249425541690000E-03   1.272477559970000E-03
   1.295923620330000E-03   1.319770458380000E-03   1.344024924840000E-03
   1.368693987550000E-03   1.393784733460000E-03   1.419304370660000E-03
   1.445260230440000E-03   1.471659769420000E-03   1.498510571670000E-03
   1.525820350920000E-03   1.553596952720000E-03   1.581848356770000E-03
   1.610582679140000E-03   1.639808174660000E-03   1.669533239230000E-03
   1.699766412290000E-03   1.730516379260000E-03   1.761791973990000E-03
   1.793602181370000E-03   1.825956139850000E-03   1.858863144090000E-03
   1.892332647650000E-03   1.926374265660000E-03   1.960997777620000E-03
   1.996213130190000E-03   2.032030440080000E-03   2.068459996880000E-03
   2.105512266120000E-03   2.143197892190000E-03   2.181527701450000E-03
   2.220512705300000E-03   2.260164103380000E-03   2.300493286770000E-03
   2.341511841280000E-03   2.383231550720000E-03   2.425664400370000E-03
   2.468822580370000E-03   2.512718489220000E-03   2.557364737370000E-03
   2.602774150830000E-03   2.648959774840000E-03   2.695934877630000E-03
   2.743712954240000E-03   2.792307730390000E-03   2.841733166420000E-03
   2.892003461300000E-03   2.943133056720000E-03   2.995136641210000E-03
   3.048029154400000E-03   3.101825791290000E-03   3.156542006600000E-03
   3.212193519260000E-03   3.268796316850000E-03   3.326366660270000E-03
   3.384921088370000E-03   3.444476422700000E-03   3.505049772350000E-03
   3.566658538880000E-03   3.629320421290000E-03   3.693053421120000E-03
   3.757875847640000E-03   3.823806323080000E-03   3.890863787980000E-03
   3.959067506660000E-03   4.028437072720000E-03   4.098992414700000E-03
   4.170753801780000E-03   4.243741849630000E-03   4.317977526280000E-03
   4.393482158230000E-03   4.470277436490000E-03   4.548385422850000E-03
   4.627828556220000E-03   4.708629659100000E-03   4.790811944050000E-03
   4.874399020480000E-03   4.959414901320000E-03   5.045884009990000E-03
   5.133831187400000E-03   5.223281699070000E-03   5.314261242400000E-03
   5.406795954040000E-03   5.500912417440000E-03   5.596637670440000E-03
   5.693999213030000E-03   5.793025015320000E-03   5.893743525500000E-03
   5.996183678040000E-03   6.100374902020000E-03   6.206347129570000E-03
   6.314130804450000E-03   6.423756890830000E-03   6.535256882160000E-03
   6.648662810230000E-03   6.764007254370000E-03   6.881323350810000E-03
   7.000644802180000E-03   7.122005887240000E-03   7.245441470680000E-03
   7.370987013150000E-03   7.498678581450000E-03   7.628552858910000E-03
   7.760647155880000E-03   7.894999420510000E-03   8.031648249599999E-03
   8.170632899710000E-03   8.311993298449999E-03   8.455770055919999E-03
   8.602004476399999E-03   8.750738570220001E-03   8.902015065789999E-03
   9.055877421930000E-03   9.212369840310000E-03   9.371537278190000E-03
   9.533425461280000E-03   9.698080896920000E-03   9.865550887450000E-03
   1.003588354370000E-02   1.020912779910000E-02   1.038533342320000E-02
   1.056455103650000E-02   1.074683212480000E-02   1.093222905390000E-02
   1.112079508480000E-02   1.131258438880000E-02   1.150765206330000E-02
   1.170605414740000E-02   1.190784763830000E-02   1.211309050730000E-02
   1.232184171670000E-02   1.253416123660000E-02   1.275011006250000E-02
   1.296975023220000E-02   1.319314484400000E-02   1.342035807490000E-02
   1.365145519890000E-02   1.388650260580000E-02   1.412556782000000E-02
   1.436871952040000E-02   1.461602755980000E-02   1.486756298500000E-02
   1.512339805720000E-02   1.538360627290000E-02   1.564826238490000E-02
   1.591744242380000E-02   1.619122371980000E-02   1.646968492500000E-02
   1.675290603590000E-02   1.704096841630000E-02   1.733395482110000E-02
   1.763194941970000E-02   1.793503782000000E-02   1.824330709350000E-02
   1.855684580000000E-02   1.887574401310000E-02   1.920009334620000E-02
   1.952998697840000E-02   1.986551968180000E-02   2.020678784860000E-02
   2.055388951830000E-02   2.090692440670000E-02   2.126599393380000E-02
   2.163120125340000E-02   2.200265128240000E-02   2.238045073120000E-02
   2.276470813440000E-02   2.315553388150000E-02   2.355304024940000E-02
   2.395734143390000E-02   2.436855358290000E-02   2.478679482970000E-02
   2.521218532690000E-02   2.564484728090000E-02   2.608490498730000E-02
   2.653248486590000E-02   2.698771549800000E-02   2.745072766240000E-02
   2.792165437350000E-02   2.840063091950000E-02   2.888779490120000E-02
   2.938328627120000E-02   2.988724737460000E-02   3.039982298980000E-02
   3.092116036980000E-02   3.145140928470000E-02   3.199072206470000E-02
   3.253925364410000E-02   3.309716160530000E-02   3.366460622450000E-02
   3.424175051750000E-02   3.482876028670000E-02   3.542580416860000E-02
   3.603305368250000E-02   3.665068327940000E-02   3.727887039220000E-02
   3.791779548700000E-02   3.856764211470000E-02   3.922859696340000E-02
   3.990084991290000E-02   4.058459408840000E-02   4.128002591630000E-02
   4.198734518070000E-02   4.270675508080000E-02   4.343846228920000E-02
   4.418267701110000E-02   4.493961304500000E-02   4.570948784400000E-02
   4.649252257830000E-02   4.728894219860000E-02   4.809897550070000E-02
   4.892285519170000E-02   4.976081795610000E-02   5.061310452460000E-02
   5.147995974250000E-02   5.236163264050000E-02   5.325837650620000E-02
   5.417044895690000E-02   5.509811201310000E-02   5.604163217470000E-02
   5.700128049660000E-02   5.797733266730000E-02   5.897006908770000E-02
   5.997977495170000E-02   6.100674032820000E-02   6.205126024470000E-02
   6.311363477130000E-02   6.419416910790000E-02   6.529317367090000E-02
   6.641096418310000E-02   6.754786176410001E-02   6.870419302270001E-02
   6.988029015020000E-02   7.107649101680000E-02   7.229313926780000E-02
   7.353058442270000E-02   7.478918197550000E-02   7.606929349690000E-02
   7.737128673830000E-02   7.869553573700000E-02   8.004242092420000E-02
   8.141232923400001E-02   8.280565421449999E-02   8.422279614090000E-02
   8.566416213090000E-02   8.713016626080000E-02   8.862122968529999E-02
   9.013778075820000E-02   9.168025515510000E-02   9.324909599910000E-02
   9.484475398790000E-02   9.646768752300000E-02   9.811836284200000E-02
   9.979725415180001E-02   1.015048437660000E-01   1.032416222410000E-01
   1.050080885200000E-01   1.068047500750000E-01   1.086321230510000E-01
   1.104907324190000E-01   1.123811121190000E-01   1.143038052230000E-01
   1.162593640820000E-01   1.182483504900000E-01   1.202713358450000E-01
   1.223289013110000E-01   1.244216379880000E-01   1.265501470770000E-01
   1.287150400580000E-01   1.309169388640000E-01   1.331564760570000E-01
   1.354342950120000E-01   1.377510501040000E-01   1.401074068910000E-01
   1.425040423080000E-01   1.449416448630000E-01   1.474209148320000E-01
   1.499425644610000E-01   1.525073181710000E-01   1.551159127660000E-01
   1.577690976450000E-01   1.604676350170000E-01   1.632123001190000E-01
   1.660038814410000E-01   1.688431809490000E-01   1.717310143200000E-01
   1.746682111720000E-01   1.776556153050000E-01   1.806940849420000E-01
   1.837844929780000E-01   1.869277272250000E-01   1.901246906760000E-01
   1.933763017550000E-01   1.966834945870000E-01   2.000472192650000E-01
   2.034684421220000E-01   2.069481460090000E-01   2.104873305780000E-01
   2.140870125680000E-01   2.177482260970000E-01   2.214720229620000E-01
   2.252594729380000E-01   2.291116640850000E-01   2.330297030630000E-01
   2.370147154500000E-01   2.410678460620000E-01   2.451902592850000E-01
   2.493831394090000E-01   2.536476909680000E-01   2.579851390830000E-01
   2.623967298200000E-01   2.668837305440000E-01   2.714474302840000E-01
   2.760891401010000E-01   2.808101934700000E-01   2.856119466570000E-01
   2.904957791140000E-01   2.954630938700000E-01   3.005153179400000E-01
   3.056539027290000E-01   3.108803244540000E-01   3.161960845640000E-01
   3.216027101750000E-01   3.271017545040000E-01   3.326947973220000E-01
   3.383834454010000E-01   3.441693329800000E-01   3.500541222330000E-01
   3.560395037440000E-01   3.621271970000000E-01   3.683189508750000E-01
   3.746165441420000E-01   3.810217859760000E-01   3.875365164810000E-01
   3.941626072110000E-01   4.009019617150000E-01   4.077565160790000E-01
   4.147282394830000E-01   4.218191347690000E-01   4.290312390140000E-01
   4.363666241150000E-01   4.438273973880000E-01   4.514157021670000E-01
   4.591337184260000E-01   4.669836634010000E-01   4.749677922310000E-01
   4.830883986000000E-01   4.913478154020000E-01   4.997484154070000E-01
   5.082926119450000E-01   5.169828595980001E-01   5.258216549069999E-01
   5.348115370860000E-01   5.439550887550000E-01   5.532549366780000E-01
   5.627137525230000E-01   5.723342536240000E-01   5.821192037650000E-01
   5.920714139720000E-01   6.021937433230000E-01   6.124890997680000E-01
   6.229604409630000E-01   6.336107751209999E-01   6.444431618790000E-01
   6.554607131700000E-01   6.666665941240000E-01   6.780640239740000E-01
   6.896562769810000E-01   7.014466833740000E-01   7.134386303100000E-01
   7.256355628430000E-01   7.380409849160000E-01   7.506584603649999E-01
   7.634916139480000E-01   7.765441323820000E-01   7.898197654020001E-01
   8.033223268400000E-01   8.170556957230000E-01   8.310238173790000E-01
   8.452307045820000E-01   8.596804386930000E-01   8.743771708440000E-01
   8.893251231190000E-01   9.045285897770000E-01   9.199919384790000E-01
   9.357196115460000E-01   9.517161272350000E-01   9.679860810349999E-01
   9.845341469880000E-01   1.001365079030000E+00   1.018483712370000E+00
   1.035894964860000E+00   1.053603838410000E+00   1.071615420430000E+00
   1.089934885320000E+00   1.108567495890000E+00   1.127518604930000E+00
   1.146793656730000E+00   1.166398188640000E+00   1.186337832670000E+00
   1.206618317080000E+00   1.227245468070000E+00   1.248225211420000E+00
   1.269563574200000E+00   1.291266686520000E+00   1.313340783250000E+00
   1.335792205850000E+00   1.358627404190000E+00   1.381852938380000E+00
   1.405475480660000E+00   1.429501817340000E+00   1.453938850700000E+00
   1.478793601050000E+00   1.504073208670000E+00   1.529784935900000E+00
   1.555936169220000E+00   1.582534421380000E+00   1.609587333540000E+00
   1.637102677480000E+00   1.665088357820000E+00   1.693552414310000E+00
   1.722503024120000E+00   1.751948504200000E+00   1.781897313670000E+00
   1.812358056240000E+00   1.843339482690000E+00   1.874850493390000E+00
   1.906900140840000E+00   1.939497632290000E+00   1.972652332350000E+00
   2.006373765750000E+00   2.040671619980000E+00   2.075555748170000E+00
   2.111036171840000E+00   2.147123083840000E+00   2.183826851240000E+00
   2.221158018310000E+00   2.259127309590000E+00   2.297745632910000E+00
   2.337024082570000E+00   2.376973942520000E+00   2.417606689560000E+00
   2.458933996700000E+00   2.500967736490000E+00   2.543719984390000E+00
   2.587203022310000E+00   2.631429342070000E+00   2.676411649050000E+00
   2.722162865780000E+00   2.768696135720000E+00   2.816024826960000E+00
   2.864162536130000E+00   2.913123092250000E+00   2.962920560750000E+00
   3.013569247480000E+00   3.065083702820000E+00   3.117478725880000E+00
   3.170769368730000E+00   3.224970940760000E+00   3.280099013010000E+00
   3.336169422720000E+00   3.393198277830000E+00   3.451201961630000E+00
   3.510197137450000E+00   3.570200753470000E+00   3.631230047560000E+00
   3.693302552260000E+00   3.756436099800000E+00   3.820648827220000E+00
   3.885959181610000E+00   3.952385925350000E+00   4.019948141580000E+00
   4.088665239600000E+00   4.158556960500000E+00   4.229643382840000E+00
   4.301944928350000E+00   4.375482367880000E+00   4.450276827310000E+00
   4.526349793640000E+00   4.603723121160000E+00   4.682419037730000E+00
   4.762460151160000E+00   4.843869455720000E+00   4.926670338730000E+00
   5.010886587280000E+00   5.096542395060000E+00   5.183662369330000E+00
   5.272271537980000E+00   5.362395356700000E+00   5.454059716320000E+00
   5.547290950240000E+00   5.642115842000000E+00   5.738561632930000E+00
   5.836656030070000E+00   5.936427214020000E+00   6.037903847110000E+00
   6.141115081630000E+00   6.246090568160000E+00   6.352860464130000E+00
   6.461455442460000E+00   6.571906700380000E+00   6.684245968420000E+00
   6.798505519450000E+00   6.914718178050000E+00   7.032917329870000E+00
   7.153136931220000E+00   7.275411518870000E+00   7.399776219960000E+00
   7.526266762040000E+00   7.654919483410000E+00   7.785771343510000E+00
   7.918859933530000E+00   8.054223487250001E+00   8.191900892020000E+00
   8.331931699869999E+00   8.474356138959999E+00   8.619215125060000E+00
   8.766550273360000E+00   8.916403910400000E+00   9.068819086220000E+00
   9.223839586770000E+00   9.381509946420000E+00   9.541875460829999E+00
   9.704982199890001E+00   9.870877021020000E+00   1.003960758260000E+01
   1.021122235760000E+01   1.038577064780000E+01   1.056330259730000E+01
   1.074386920770000E+01   1.092752235240000E+01   1.111431479120000E+01
   1.130430018610000E+01   1.149753311620000E+01   1.169406909360000E+01
   1.189396457910000E+01   1.209727699910000E+01   1.230406476110000E+01
   1.251438727130000E+01   1.272830495130000E+01   1.294587925550000E+01
   1.316717268870000E+01   1.339224882440000E+01   1.362117232250000E+01
   1.385400894820000E+01   1.409082559120000E+01   1.433169028420000E+01
   1.457667222290000E+01   1.482584178600000E+01   1.507927055500000E+01
   1.533703133510000E+01   1.559919817610000E+01   1.586584639330000E+01
   1.613705258960000E+01   1.641289467740000E+01   1.669345190070000E+01
   1.697880485810000E+01   1.726903552620000E+01   1.756422728240000E+01
   1.786446492980000E+01   1.816983472070000E+01   1.848042438200000E+01
   1.879632314010000E+01   1.911762174660000E+01   1.944441250440000E+01
   1.977678929410000E+01   2.011484760120000E+01   2.045868454320000E+01
   2.080839889790000E+01   2.116409113140000E+01   2.152586342720000E+01
   2.189381971550000E+01   2.226806570310000E+01   2.264870890350000E+01
   2.303585866820000E+01   2.342962621780000E+01   2.383012467410000E+01
   2.423746909260000E+01   2.465177649550000E+01   2.507316590510000E+01
   2.550175837870000E+01   2.593767704240000E+01   2.638104712730000E+01
   2.683199600500000E+01   2.729065322440000E+01   2.775715054890000E+01
   2.823162199410000E+01   2.871420386650000E+01   2.920503480250000E+01
   2.970425580840000E+01   3.021201030060000E+01   3.072844414720000E+01
   3.125370570970000E+01   3.178794588560000E+01   3.233131815160000E+01
   3.288397860820000E+01   3.344608602400000E+01   3.401780188160000E+01
   3.459929042390000E+01   3.519071870130000E+01   3.579225661970000E+01
   3.640407698930000E+01   3.702635557420000E+01   3.765927114310000E+01
   3.830300552040000E+01   3.895774363840000E+01   3.962367359070000E+01
   4.030098668630000E+01   4.098987750390000E+01   4.169054394860000E+01
   4.240318730840000E+01   4.312801231180000E+01   4.386522718710000E+01
   4.461504372170000E+01   4.537767732360000E+01   4.615334708260000E+01
   4.694227583360000E+01   4.774469022050000E+01   4.856082076150000E+01
   4.939090191510000E+01   5.023517214760000E+01   5.109387400140000E+01
   5.196725416500000E+01   5.285556354360000E+01   5.375905733120000E+01
   5.467799508430000E+01   5.561264079570000E+01   5.656326297120000E+01
   5.753013470610000E+01   5.851353376390000E+01   5.951374265610000E+01
   6.053104872350000E+01   6.156574421830000E+01   6.261812638850000E+01
   6.368849756330000E+01   6.477716523940001E+01   6.588444217010000E+01
   6.701064645460001E+01   6.815610162960000E+01   6.932113676230000E+01
   7.050608654449999E+01   7.171129138960001E+01   7.293709752949999E+01
   7.418385711460000E+01   7.545192831480000E+01   7.674167542239999E+01
   7.805346895690001E+01   7.938768577099999E+01   8.074470915960001E+01
   8.212492896910000E+01   8.352874171000001E+01   8.495655067049999E+01
   8.640876603250000E+01   8.788580498940000E+01   8.938809186600000E+01
   9.091605824000000E+01   9.247014306680001E+01   9.405079280470000E+01
   9.565846154400001E+01   9.729361113669999E+01   9.895671132960000E+01
   1.006482398990000E+02   1.023686827890000E+02   1.041185342490000E+02
   1.058982969780000E+02   1.077084822660000E+02   1.095496101460000E+02
   1.114222095370000E+02   1.133268184020000E+02   1.152639838970000E+02
   1.172342625320000E+02   1.192382203320000E+02   1.212764329930000E+02
   1.233494860540000E+02   1.254579750650000E+02   1.276025057530000E+02
   1.297836942000000E+02   1.320021670190000E+02   1.342585615350000E+02
   1.365535259660000E+02   1.388877196110000E+02   1.412618130390000E+02
   1.436764882810000E+02   1.461324390260000E+02   1.486303708220000E+02
   1.511710012750000E+02   1.537550602610000E+02   1.563832901280000E+02
   1.590564459170000E+02   1.617752955730000E+02   1.645406201700000E+02
   1.673532141320000E+02   1.702138854620000E+02   1.731234559760000E+02
   1.760827615370000E+02   1.790926522970000E+02   1.821539929390000E+02
   1.852676629260000E+02   1.884345567570000E+02   1.916555842180000E+02
   1.949316706470000E+02   1.982637572030000E+02   2.016528011270000E+02
   2.050997760280000E+02
    </PP_R>
    <PP_RAB>
   1.680509950280000E-06   1.709235922540000E-06   1.738452925200000E-06
   1.768169351750000E-06   1.798393739140000E-06   1.829134770250000E-06
   1.860401276380000E-06   1.892202239800000E-06   1.924546796300000E-06
   1.957444237860000E-06   1.990904015270000E-06   2.024935740880000E-06
   2.059549191340000E-06   2.094754310430000E-06   2.130561211900000E-06
   2.166980182380000E-06   2.204021684330000E-06   2.241696359060000E-06
   2.280015029780000E-06   2.318988704690000E-06   2.358628580190000E-06
   2.398946044030000E-06   2.439952678650000E-06   2.481660264460000E-06
   2.524080783250000E-06   2.567226421590000E-06   2.611109574420000E-06
   2.655742848490000E-06   2.701139066090000E-06   2.747311268680000E-06
   2.794272720640000E-06   2.842036913070000E-06   2.890617567710000E-06
   2.940028640850000E-06   2.990284327320000E-06   3.041399064620000E-06
   3.093387537010000E-06   3.146264679780000E-06   3.200045683510000E-06
   3.254745998440000E-06   3.310381338920000E-06   3.366967687890000E-06
   3.424521301530000E-06   3.483058713870000E-06   3.542596741580000E-06
   3.603152488780000E-06   3.664743351970000E-06   3.727387025010000E-06
   3.791101504210000E-06   3.855905093510000E-06   3.921816409730000E-06
   3.988854387910000E-06   4.057038286780000E-06   4.126387694230000E-06
   4.196922533020000E-06   4.268663066440000E-06   4.341629904160000E-06
   4.415844008130000E-06   4.491326698640000E-06   4.568099660400000E-06
   4.646184948790000E-06   4.725604996210000E-06   4.806382618500000E-06
   4.888541021510000E-06   4.972103807760000E-06   5.057094983220000E-06
   5.143538964210000E-06   5.231460584410000E-06   5.320885102000000E-06
   5.411838206920000E-06   5.504346028230000E-06   5.598435141650000E-06
   5.694132577140000E-06   5.791465826740000E-06   5.890462852400000E-06
   5.991152094050000E-06   6.093562477760000E-06   6.197723424060000E-06
   6.303664856370000E-06   6.411417209610000E-06   6.521011438950000E-06
   6.632479028680000E-06   6.745852001300000E-06   6.861162926660000E-06
   6.978444931360000E-06   7.097731708250000E-06   7.219057526110000E-06
   7.342457239510000E-06   7.467966298780000E-06   7.595620760260000E-06
   7.725457296609999E-06   7.857513207340001E-06   7.991826429569999E-06
   8.128435548880000E-06   8.267379810440000E-06   8.408699130230000E-06
   8.552434106560000E-06   8.698626031719999E-06   8.847316903810001E-06
   8.998549438850000E-06   9.152367083010000E-06   9.308814025130000E-06
   9.467935209380001E-06   9.629776348200000E-06   9.794383935429999E-06
   9.961805259630000E-06   1.013208841770000E-05   1.030528232870000E-05
   1.048143674800000E-05   1.066060228110000E-05   1.084283039900000E-05
   1.102817345230000E-05   1.121668468640000E-05   1.140841825700000E-05
   1.160342924530000E-05   1.180177367440000E-05   1.200350852460000E-05
   1.220869175060000E-05   1.241738229740000E-05   1.262964011800000E-05
   1.284552618970000E-05   1.306510253250000E-05   1.328843222650000E-05
   1.351557942980000E-05   1.374660939770000E-05   1.398158850040000E-05
   1.422058424290000E-05   1.446366528410000E-05   1.471090145640000E-05
   1.496236378610000E-05   1.521812451330000E-05   1.547825711330000E-05
   1.574283631700000E-05   1.601193813290000E-05   1.628563986880000E-05
   1.656402015390000E-05   1.684715896140000E-05   1.713513763180000E-05
   1.742803889560000E-05   1.772594689770000E-05   1.802894722130000E-05
   1.833712691260000E-05   1.865057450560000E-05   1.896938004780000E-05
   1.929363512580000E-05   1.962343289180000E-05   1.995886809040000E-05
   2.030003708550000E-05   2.064703788850000E-05   2.099997018590000E-05
   2.135893536840000E-05   2.172403655970000E-05   2.209537864630000E-05
   2.247306830770000E-05   2.285721404670000E-05   2.324792622100000E-05
   2.364531707460000E-05   2.404950077030000E-05   2.446059342210000E-05
   2.487871312910000E-05   2.530398000900000E-05   2.573651623270000E-05
   2.617644605940000E-05   2.662389587260000E-05   2.707899421590000E-05
   2.754187183020000E-05   2.801266169130000E-05   2.849149904810000E-05
   2.897852146120000E-05   2.947386884280000E-05   2.997768349650000E-05
   3.049011015860000E-05   3.101129603940000E-05   3.154139086540000E-05
   3.208054692260000E-05   3.262891910020000E-05   3.318666493490000E-05
   3.375394465620000E-05   3.433092123260000E-05   3.491776041840000E-05
   3.551463080100000E-05   3.612170384990000E-05   3.673915396530000E-05
   3.736715852860000E-05   3.800589795360000E-05   3.865555573750000E-05
   3.931631851460000E-05   3.998837610930000E-05   4.067192159050000E-05
   4.136715132780000E-05   4.207426504720000E-05   4.279346588880000E-05
   4.352496046500000E-05   4.426895892020000E-05   4.502567499050000E-05
   4.579532606610000E-05   4.657813325260000E-05   4.737432143550000E-05
   4.818411934410000E-05   4.900775961790000E-05   4.984547887270000E-05
   5.069751776900000E-05   5.156412108110000E-05   5.244553776740000E-05
   5.334202104180000E-05   5.425382844670000E-05   5.518122192660000E-05
   5.612446790380000E-05   5.708383735450000E-05   5.805960588710000E-05
   5.905205382100000E-05   6.006146626720000E-05   6.108813321050000E-05
   6.213234959229999E-05   6.319441539580000E-05   6.427463573200000E-05
   6.537332092730001E-05   6.649078661269999E-05   6.762735381440000E-05
   6.878334904620001E-05   6.995910440310000E-05   7.115495765700000E-05
   7.237125235340001E-05   7.360833790999999E-05   7.486656971780001E-05
   7.614630924230001E-05   7.744792412800000E-05   7.877178830360000E-05
   8.011828208970000E-05   8.148779230780000E-05   8.288071239189999E-05
   8.429744250080000E-05   8.573838963370000E-05   8.720396774680000E-05
   8.869459787240000E-05   9.021070823960000E-05   9.175273439770000E-05
   9.332111934090001E-05   9.491631363580000E-05   9.653877555090001E-05
   9.818897118810000E-05   9.986737461670000E-05   1.015744680100000E-04
   1.033107417810000E-04   1.050766947300000E-04   1.068728341800000E-04
   1.086996761270000E-04   1.105577453880000E-04   1.124475757500000E-04
   1.143697101240000E-04   1.163247007020000E-04   1.183131091160000E-04
   1.203355065970000E-04   1.223924741410000E-04   1.244846026740000E-04
   1.266124932240000E-04   1.287767570940000E-04   1.309780160330000E-04
   1.332169024230000E-04   1.354940594500000E-04   1.378101412990000E-04
   1.401658133350000E-04   1.425617522970000E-04   1.449986464910000E-04
   1.474771959910000E-04   1.499981128350000E-04   1.525621212350000E-04
   1.551699577800000E-04   1.578223716510000E-04   1.605201248350000E-04
   1.632639923450000E-04   1.660547624410000E-04   1.688932368560000E-04
   1.717802310310000E-04   1.747165743410000E-04   1.777031103430000E-04
   1.807406970090000E-04   1.838302069800000E-04   1.869725278130000E-04
   1.901685622340000E-04   1.934192284040000E-04   1.967254601750000E-04
   2.000882073640000E-04   2.035084360230000E-04   2.069871287180000E-04
   2.105252848090000E-04   2.141239207410000E-04   2.177840703320000E-04
   2.215067850720000E-04   2.252931344250000E-04   2.291442061350000E-04
   2.330611065430000E-04   2.370449608960000E-04   2.410969136790000E-04
   2.452181289400000E-04   2.494097906250000E-04   2.536731029160000E-04
   2.580092905800000E-04   2.624195993220000E-04   2.669052961360000E-04
   2.714676696770000E-04   2.761080306260000E-04   2.808277120690000E-04
   2.856280698800000E-04   2.905104831080000E-04   2.954763543770000E-04
   3.005271102840000E-04   3.056642018140000E-04   3.108891047550000E-04