<UPF version="2.0.1">
  <PP_INFO>
    Generated by new atomic code, or converted to UPF format
    Author: 
    Generation date: 
    Pseudopotential type: US
    Element: Mo
    Functional: SLA  PZ   NOGX NOGC
    Suggested minimum cutoff for wavefunctions:   0. Ry
    Suggested minimum cutoff for charge density:   0. Ry
    The Pseudo was generated with a Non-Relativistic Calculation
    L component and cutoff radius for Local Potential:  0   0.0000
    Valence configuration: 
    nl pn  l   occ       Rcut    Rcut US       E pseu
    4S  1  0  2.00      0.000      0.000     0.000000
    4P  2  1  6.00      0.000      0.000     0.000000
    4D  3  2  4.00      0.000      0.000     0.000000
    5S  1  0  2.00      0.000      0.000     0.000000
    5P  2  1  0.00      0.000      0.000     0.000000
    Generation configuration: not available.
  </PP_INFO>
    <!-- END OF HUMAN READABLE SECTION -->
  <PP_HEADER generated="Generated by new atomic code, or converted to UPF format" author="" date="" comment="" element="Mo" pseudo_type="US" relativistic="no" is_ultrasoft="true" is_paw="false" is_coulomb="false" has_so="false" has_wfc="false" has_gipaw="false" paw_as_gipaw="false" core_correction="true" functional="SLA  PZ   NOGX NOGC" z_valence="14.000000000000000" total_psenergy="-138.59287832199999" wfc_cutoff="0.0000000000000000" rho_cutoff="0.0000000000000000" l_max="2" l_max_rho="0" l_local="0" mesh_size="889" number_of_wfc="5" number_of_proj="6"/>
  <PP_MESH>
    <PP_R>
   0.000000000000000E+00   1.008828787620000E-06   2.034902095430000E-06
   3.078514694430000E-06   4.139966394330000E-06   5.219562129670000E-06
   6.317612047400000E-06   7.434431596020000E-06   8.570341616180000E-06
   9.725668432840001E-06   1.090074394900000E-05   1.209590574120000E-05
   1.331149715630000E-05   1.454786741010000E-05   1.580537168790000E-05
   1.708437124630000E-05   1.838523351720000E-05   1.970833221310000E-05
   2.105404743470000E-05   2.242276577990000E-05   2.381488045500000E-05
   2.523079138770000E-05   2.667090534160000E-05   2.813563603380000E-05
   2.962540425290000E-05   3.114063798060000E-05   3.268177251420000E-05
   3.424925059180000E-05   3.584352251960000E-05   3.746504630100000E-05
   3.911428776840000E-05   4.079172071700000E-05   4.249782704080000E-05
   4.423309687110000E-05   4.599802871740000E-05   4.779312961050000E-05
   4.961891524810000E-05   5.147591014300000E-05   5.336464777410000E-05
   5.528567073890000E-05   5.723953091040000E-05   5.922678959470000E-05
   6.124801769270000E-05   6.330379586420000E-05   6.539471469450000E-05
   6.752137486410000E-05   6.968438732119999E-05   7.188437345760000E-05
   7.412196528670000E-05   7.639780562530000E-05   7.871254827830000E-05
   8.106685822639999E-05   8.346141181740000E-05   8.589689696010000E-05
   8.837401332240000E-05   9.089347253180000E-05   9.345599838020000E-05
   9.606232703170000E-05   9.871320723400000E-05   1.014094005340000E-04
   1.041516814950000E-04   1.069408379220000E-04   1.097776710860000E-04
   1.126629959540000E-04   1.155976414230000E-04   1.185824505610000E-04
   1.216182808460000E-04   1.247060044130000E-04   1.278465083040000E-04
   1.310406947270000E-04   1.342894813090000E-04   1.375938013630000E-04
   1.409546041570000E-04   1.443728551850000E-04   1.478495364430000E-04
   1.513856467160000E-04   1.549822018580000E-04   1.586402350910000E-04
   1.623607972970000E-04   1.661449573220000E-04   1.699938022800000E-04
   1.739084378720000E-04   1.778899886970000E-04   1.819395985750000E-04
   1.860584308830000E-04   1.902476688810000E-04   1.945085160560000E-04
   1.988421964670000E-04   2.032499550960000E-04   2.077330582080000E-04
   2.122927937100000E-04   2.169304715280000E-04   2.216474239750000E-04
   2.264450061410000E-04   2.313245962790000E-04   2.362875962000000E-04
   2.413354316790000E-04   2.464695528600000E-04   2.516914346780000E-04
   2.570025772770000E-04   2.624045064470000E-04   2.678987740570000E-04
   2.734869585040000E-04   2.791706651650000E-04   2.849515268590000E-04
   2.908312043160000E-04   2.968113866540000E-04   3.028937918620000E-04
   3.090801672990000E-04   3.153722901900000E-04   3.217719681410000E-04
   3.282810396540000E-04   3.349013746620000E-04   3.416348750560000E-04
   3.484834752430000E-04   3.554491426910000E-04   3.625338785030000E-04
   3.697397179870000E-04   3.770687312400000E-04   3.845230237460000E-04
   3.921047369790000E-04   3.998160490180000E-04   4.076591751750000E-04
   4.156363686280000E-04   4.237499210690000E-04   4.320021633660000E-04
   4.403954662290000E-04   4.489322408900000E-04   4.576149397990000E-04
   4.664460573290000E-04   4.754281304880000E-04   4.845637396530000E-04
   4.938555093060000E-04   5.033061087940000E-04   5.129182530900000E-04
   5.226947035790001E-04   5.326382688440000E-04   5.427518054810000E-04
   5.530382189109999E-04   5.635004642230000E-04   5.741415470180000E-04
   5.849645242720000E-04   5.959725052180000E-04   6.071686522350000E-04
   6.185561817600000E-04   6.301383652090000E-04   6.419185299200000E-04
   6.539000601070000E-04   6.660863978300000E-04   6.784810439890000E-04
   6.910875593270000E-04   7.039095654500000E-04   7.169507458730000E-04
   7.302148470750000E-04   7.437056795760000E-04   7.574271190300000E-04
   7.713831073420000E-04   7.855776537970000E-04   8.000148362130000E-04
   8.146988021140000E-04   8.296337699190000E-04   8.448240301560000E-04
   8.602739466909999E-04   8.759879579870000E-04   8.919705783760000E-04
   9.082263993550000E-04   9.247600909060000E-04   9.415764028400000E-04
   9.586801661570000E-04   9.760762944390000E-04   9.937697852540001E-04
   1.011765721600000E-03   1.030069273370000E-03   1.048685698800000E-03
   1.067620346050000E-03   1.086878654670000E-03   1.106466157200000E-03
   1.126388480740000E-03   1.146651348610000E-03   1.167260581920000E-03
   1.188222101310000E-03   1.209541928620000E-03   1.231226188620000E-03
   1.253281110790000E-03   1.275713031070000E-03   1.298528393720000E-03
   1.321733753150000E-03   1.345335775820000E-03   1.369341242130000E-03
   1.393757048380000E-03   1.418590208760000E-03   1.443847857360000E-03
   1.469537250220000E-03   1.495665767390000E-03   1.522240915100000E-03
   1.549270327880000E-03   1.576761770740000E-03   1.604723141440000E-03
   1.633162472760000E-03   1.662087934760000E-03   1.691507837160000E-03
   1.721430631730000E-03   1.751864914710000E-03   1.782819429290000E-03
   1.814303068100000E-03   1.846324875770000E-03   1.878894051550000E-03
   1.912019951940000E-03   1.945712093360000E-03   1.979980154930000E-03
   2.014833981170000E-03   2.050283584940000E-03   2.086339150210000E-03
   2.123011035050000E-03   2.160309774580000E-03   2.198246084000000E-03
   2.236830861690000E-03   2.276075192310000E-03   2.315990349990000E-03
   2.356587801580000E-03   2.397879209950000E-03   2.439876437320000E-03
   2.482591548680000E-03   2.526036815250000E-03   2.570224718030000E-03
   2.615167951330000E-03   2.660879426480000E-03   2.707372275500000E-03
   2.754659854900000E-03   2.802755749460000E-03   2.851673776220000E-03
   2.901427988380000E-03   2.952032679360000E-03   3.003502386900000E-03
   3.055851897260000E-03   3.109096249450000E-03   3.163250739520000E-03
   3.218330925030000E-03   3.274352629430000E-03   3.331331946690000E-03
   3.389285245850000E-03   3.448229175790000E-03   3.508180669940000E-03
   3.569156951210000E-03   3.631175536920000E-03   3.694254243790000E-03
   3.758411193130000E-03   3.823664815970000E-03   3.890033858430000E-03
   3.957537387040000E-03   4.026194794270000E-03   4.096025804050000E-03
   4.167050477490000E-03   4.239289218600000E-03   4.312762780170000E-03
   4.387492269730000E-03   4.463499155630000E-03   4.540805273160000E-03
   4.619432830880000E-03   4.699404416970000E-03   4.780743005720000E-03
   4.863471964120000E-03   4.947615058600000E-03   5.033196461860000E-03
   5.120240759760000E-03   5.208772958460000E-03   5.298818491540000E-03
   5.390403227340000E-03   5.483553476380000E-03   5.578295998920000E-03
   5.674658012670000E-03   5.772667200550000E-03   5.872351718720000E-03
   5.973740204600000E-03   6.076861785160000E-03   6.181746085210000E-03
   6.288423236000000E-03   6.396923883790000E-03   6.507279198740000E-03
   6.619520883780000E-03   6.733681183790000E-03   6.849792894800000E-03
   6.967889373460000E-03   7.088004546600000E-03   7.210172921000000E-03
   7.334429593250000E-03   7.460810259910000E-03   7.589351227680000E-03
   7.720089423910000E-03   7.853062407130001E-03   7.988308377929999E-03
   8.125866189849999E-03   8.265775360579999E-03   8.408076083330000E-03
   8.552809238340000E-03   8.700016404640000E-03   8.849739872000001E-03
   9.002022653080000E-03   9.156908495780000E-03   9.314441895800000E-03
   9.474668109430000E-03   9.637633166579999E-03   9.803383883940000E-03
   9.971967878480001E-03   1.014343358110000E-02   1.031783025070000E-02
   1.049520798790000E-02   1.067561775000000E-02   1.085911136520000E-02
   1.104574154760000E-02   1.123556191260000E-02   1.142862699180000E-02
   1.162499224900000E-02   1.182471409630000E-02   1.202784990990000E-02
   1.223445804660000E-02   1.244459786110000E-02   1.265832972250000E-02
   1.287571503180000E-02   1.309681623950000E-02   1.332169686380000E-02
   1.355042150850000E-02   1.378305588190000E-02   1.401966681510000E-02
   1.426032228210000E-02   1.450509141840000E-02   1.475404454150000E-02
   1.500725317080000E-02   1.526479004820000E-02   1.552672915910000E-02
   1.579314575350000E-02   1.606411636780000E-02   1.633971884660000E-02
   1.662003236520000E-02   1.690513745210000E-02   1.719511601260000E-02
   1.749005135190000E-02   1.779002819920000E-02   1.809513273200000E-02
   1.840545260110000E-02   1.872107695520000E-02   1.904209646710000E-02
   1.936860335960000E-02   1.970069143170000E-02   2.003845608600000E-02
   2.038199435560000E-02   2.073140493250000E-02   2.108678819560000E-02
   2.144824623960000E-02   2.181588290440000E-02   2.218980380490000E-02
   2.257011636130000E-02   2.295692983020000E-02   2.335035533540000E-02
   2.375050590060000E-02   2.415749648120000E-02   2.457144399780000E-02
   2.499246736950000E-02   2.542068754810000E-02   2.585622755310000E-02
   2.629921250660000E-02   2.674976966960000E-02   2.720802847860000E-02
   2.767412058230000E-02   2.814817988010000E-02   2.863034255990000E-02
   2.912074713790000E-02   2.961953449770000E-02   3.012684793130000E-02
   3.064283318000000E-02   3.116763847650000E-02   3.170141458710000E-02
   3.224431485530000E-02   3.279649524590000E-02   3.335811438970000E-02
   3.392933362890000E-02   3.451031706390000E-02   3.510123159980000E-02
   3.570224699500000E-02   3.631353590970000E-02   3.693527395520000E-02
   3.756763974480000E-02   3.821081494520000E-02   3.886498432790000E-02
   3.953033582330000E-02   4.020706057390000E-02   4.089535298970000E-02
   4.159541080370000E-02   4.230743512910000E-02   4.303163051660000E-02
   4.376820501350000E-02   4.451737022350000E-02   4.527934136720000E-02
   4.605433734420000E-02   4.684258079580000E-02   4.764429816920000E-02
   4.845971978210000E-02   4.928907988960000E-02   5.013261675060000E-02
   5.099057269690000E-02   5.186319420280000E-02   5.275073195560000E-02
   5.365344092750000E-02   5.457158044950000E-02   5.550541428520000E-02
   5.645521070710000E-02   5.742124257320000E-02   5.840378740600000E-02
   5.940312747130000E-02   6.041954986040000E-02   6.145334657170000E-02
   6.250481459500000E-02   6.357425599680000E-02   6.466197800670000E-02
   6.576829310640001E-02   6.689351911870001E-02   6.803797929930000E-02
   6.920200242950000E-02   7.038592291060000E-02   7.159008086000000E-02
   7.281482220900000E-02   7.406049880210000E-02   7.532746849810000E-02
   7.661609527280000E-02   7.792674932380000E-02   7.925980717660000E-02
   8.061565179310000E-02   8.199467268100000E-02   8.339726600630000E-02
   8.482383470719999E-02   8.627478860899999E-02   8.775054454280000E-02
   8.925152646470000E-02   9.077816557770001E-02   9.233090045580000E-02
   9.391017716960000E-02   9.551644941480000E-02   9.715017864229999E-02
   9.881183419090001E-02   1.005018934220000E-01   1.022208418570000E-01
   1.039691733170000E-01   1.057473900620000E-01   1.075560029420000E-01
   1.093955315340000E-01   1.112665043010000E-01   1.131694587360000E-01
   1.151049415210000E-01   1.170735086830000E-01   1.190757257530000E-01
   1.211121679300000E-01   1.231834202440000E-01   1.252900777250000E-01
   1.274327455760000E-01   1.296120393440000E-01   1.318285850970000E-01
   1.340830196060000E-01   1.363759905270000E-01   1.387081565850000E-01
   1.410801877680000E-01   1.434927655130000E-01   1.459465829080000E-01
   1.484423448870000E-01   1.509807684330000E-01   1.535625827870000E-01
   1.561885296550000E-01   1.588593634190000E-01   1.615758513590000E-01
   1.643387738700000E-01   1.671489246840000E-01   1.700071111050000E-01
   1.729141542340000E-01   1.758708892080000E-01   1.788781654400000E-01
   1.819368468630000E-01   1.850478121750000E-01   1.882119550980000E-01
   1.914301846280000E-01   1.947034253000000E-01   1.980326174540000E-01
   2.014187175010000E-01   2.048626982030000E-01   2.083655489480000E-01
   2.119282760380000E-01   2.155519029760000E-01   2.192374707590000E-01
   2.229860381800000E-01   2.267986821290000E-01   2.306764979050000E-01
   2.346205995300000E-01   2.386321200680000E-01   2.427122119520000E-01
   2.468620473110000E-01   2.510828183150000E-01   2.553757375080000E-01
   2.597420381640000E-01   2.641829746350000E-01   2.686998227180000E-01
   2.732938800150000E-01   2.779664663100000E-01   2.827189239470000E-01
   2.875526182140000E-01   2.924689377390000E-01   2.974692948850000E-01
   3.025551261580000E-01   3.077278926180000E-01   3.129890803020000E-01
   3.183402006470000E-01   3.237827909260000E-01   3.293184146900000E-01
   3.349486622160000E-01   3.406751509670000E-01   3.464995260500000E-01
   3.524234606980000E-01   3.584486567400000E-01   3.645768451000000E-01
   3.708097862870000E-01   3.771492709060000E-01   3.835971201660000E-01
   3.901551864100000E-01   3.968253536450000E-01   4.036095380800000E-01
   4.105096886790000E-01   4.175277877230000E-01   4.246658513750000E-01
   4.319259302640000E-01   4.393101100690000E-01   4.468205121220000E-01
   4.544592940170000E-01   4.622286502270000E-01   4.701308127390000E-01
   4.781680516910000E-01   4.863426760250000E-01   4.946570341540000E-01
   5.031135146320000E-01   5.117145468410000E-01   5.204626016930000E-01
   5.293601923330000E-01   5.384098748670000E-01   5.476142490950000E-01
   5.569759592540000E-01   5.664976947830000E-01   5.761821910920000E-01
   5.860322303500000E-01   5.960506422820000E-01   6.062403049839999E-01
   6.166041457500000E-01   6.271451419089999E-01   6.378663216860000E-01
   6.487707650690000E-01   6.598616046940000E-01   6.711420267430001E-01
   6.826152718640000E-01   6.942846360980000E-01   7.061534718280000E-01
   7.182251887400000E-01   7.305032548060000E-01   7.429911972750000E-01
   7.556926036930000E-01   7.686111229270000E-01   7.817504662180000E-01
   7.951144082450000E-01   8.087067882109999E-01   8.225315109420001E-01
   8.365925480140000E-01   8.508939388910000E-01   8.654397920860000E-01
   8.802342863410000E-01   8.952816718280000E-01   9.105862713690001E-01
   9.261524816810000E-01   9.419847746330000E-01   9.580876985370000E-01
   9.744658794520000E-01   9.911240225130000E-01   1.008066913280000E+00
   1.025299419120000E+00   1.042826490600000E+00   1.060653162900000E+00
   1.078784557290000E+00   1.097225882550000E+00   1.115982436540000E+00
   1.135059607640000E+00   1.154462876360000E+00   1.174197816880000E+00
   1.194270098660000E+00   1.214685488080000E+00   1.235449850100000E+00
   1.256569149910000E+00   1.278049454670000E+00   1.299896935260000E+00
   1.322117868040000E+00   1.344718636660000E+00   1.367705733880000E+00
   1.391085763440000E+00   1.414865441970000E+00   1.439051600930000E+00
   1.463651188510000E+00   1.488671271720000E+00   1.514119038330000E+00
   1.540001798990000E+00   1.566326989330000E+00   1.593102172050000E+00
   1.620335039160000E+00   1.648033414120000E+00   1.676205254140000E+00
   1.704858652460000E+00   1.734001840630000E+00   1.763643190920000E+00
   1.793791218740000E+00   1.824454585010000E+00   1.855642098740000E+00
   1.887362719480000E+00   1.919625559970000E+00   1.952439888700000E+00
   1.985815132570000E+00   2.019760879660000E+00   2.054286881920000E+00
   2.089403058000000E+00   2.125119496110000E+00   2.161446456880000E+00
   2.198394376340000E+00   2.235973868930000E+00   2.274195730490000E+00
   2.313070941430000E+00   2.352610669850000E+00   2.392826274750000E+00
   2.433729309280000E+00   2.475331524110000E+00   2.517644870740000E+00
   2.560681504970000E+00   2.604453790400000E+00   2.648974301970000E+00
   2.694255829550000E+00   2.740311381640000E+00   2.787154189120000E+00
   2.834797709020000E+00   2.883255628410000E+00   2.932541868290000E+00
   2.982670587660000E+00   3.033656187530000E+00   3.085513315080000E+00
   3.138256867840000E+00   3.191901998030000E+00   3.246464116860000E+00
   3.301958898950000E+00   3.358402286900000E+00   3.415810495790000E+00
   3.474200017900000E+00   3.533587627390000E+00   3.593990385190000E+00
   3.655425643830000E+00   3.717911052480000E+00   3.781464561980000E+00
   3.846104430030000E+00   3.911849226420000E+00   3.978717838340000E+00
   4.046729475870000E+00   4.115903677410000E+00   4.186260315400000E+00
   4.257819601920000E+00   4.330602094570000E+00   4.404628702360000E+00
   4.479920691690000E+00   4.556499692510000E+00   4.634387704470000E+00
   4.713607103290000E+00   4.794180647180000E+00   4.876131483340000E+00
   4.959483154690000E+00   5.044259606520000E+00   5.130485193490000E+00
   5.218184686520000E+00   5.307383280000000E+00   5.398106598940000E+00
   5.490380706410000E+00   5.584232110970000E+00   5.679687774300000E+00
   5.776775118980000E+00   5.875522036320000E+00   5.975956894410000E+00
   6.078108546220000E+00   6.182006337950000E+00   6.287680117440000E+00
   6.395160242700000E+00   6.504477590710000E+00   6.615663566210000E+00
   6.728750110800000E+00   6.843769712030000E+00   6.960755412830000E+00
   7.079740820920000E+00   7.200760118500000E+00   7.323848072070000E+00
   7.449040042430000E+00   7.576371994810000E+00   7.705880509200000E+00
   7.837602790900000E+00   7.971576681180000E+00   8.107840668130001E+00
   8.246433897770000E+00   8.387396185240000E+00   8.530768026290000E+00
   8.676590608880000E+00   8.824905825000000E+00   8.975756282750000E+00
   9.129185318539999E+00   9.285237009579999E+00   9.443956186479999E+00
   9.605388446199999E+00   9.769580165110000E+00   9.936578512300001E+00
   1.010643146320000E+01   1.027918781320000E+01   1.045489719190000E+01
   1.063361007720000E+01   1.081537780990000E+01   1.100025260830000E+01
   1.118828758340000E+01   1.137953675390000E+01   1.157405506210000E+01
   1.177189838940000E+01   1.197312357210000E+01   1.217778841860000E+01
   1.238595172490000E+01   1.259767329250000E+01   1.281301394480000E+01
   1.303203554500000E+01   1.325480101380000E+01   1.348137434730000E+01
   1.371182063580000E+01   1.394620608200000E+01   1.418459802030000E+01
   1.442706493610000E+01   1.467367648540000E+01   1.492450351500000E+01
   1.517961808250000E+01   1.543909347760000E+01   1.570300424240000E+01
   1.597142619350000E+01   1.624443644310000E+01   1.652211342200000E+01
   1.680453690130000E+01   1.709178801580000E+01   1.738394928720000E+01
   1.768110464780000E+01   1.798333946460000E+01   1.829074056380000E+01
   1.860339625580000E+01   1.892139636040000E+01   1.924483223310000E+01
   1.957379679060000E+01   1.990838453810000E+01   2.024869159620000E+01
   2.059481572850000E+01   2.094685636980000E+01   2.130491465460000E+01
   2.166909344600000E+01   2.203949736560000E+01   2.241623282330000E+01
   2.279940804780000E+01   2.318913311810000E+01   2.358551999450000E+01
   2.398868255140000E+01   2.439873660950000E+01   2.481579996940000E+01
   2.523999244550000E+01   2.567143589990000E+01   2.611025427800000E+01
   2.655657364390000E+01   2.701052221640000E+01   2.747223040630000E+01
   2.794183085330000E+01   2.841945846460000E+01   2.890525045330000E+01
   2.939934637810000E+01   2.990188818310000E+01   3.041302023890000E+01
   3.093288938390000E+01   3.146164496640000E+01   3.199943888760000E+01
   3.254642564540000E+01   3.310276237840000E+01   3.366860891140000E+01
   3.424412780120000E+01   3.482948438330000E+01   3.542484681910000E+01
   3.603038614490000E+01   3.664627632040000E+01   3.727269427890000E+01
   3.790981997810000E+01   3.855783645200000E+01   3.921692986320000E+01
   3.988728955630000E+01   4.056910811290000E+01   4.126258140610000E+01
   4.196790865740000E+01   4.268529249380000E+01   4.341493900560000E+01
   4.415705780630000E+01   4.491186209210000E+01   4.567956870380000E+01
   4.646039818860000E+01   4.725457486370000E+01   4.806232688070000E+01
   4.888388629110000E+01   4.971948911310000E+01   5.056937539910000E+01
   5.143378930510000E+01   5.231297916040000E+01   5.320719753930000E+01
   5.411670133330000E+01   5.504175182550000E+01   5.598261476470000E+01
   5.693956044290000E+01   5.791286377180000E+01   5.890280436290000E+01
   5.990966660670000E+01   6.093373975550000E+01   6.197531800540000E+01
   6.303470058200000E+01   6.411219182520000E+01   6.520810127740000E+01
   6.632274377230000E+01   6.745643952499999E+01   6.860951422440000E+01
   6.978229912650001E+01   7.097513114980001E+01   7.218835297170000E+01
   7.342231312760001E+01   7.467736611010000E+01   7.595387247190000E+01
   7.725219892840001E+01   7.857271846360000E+01   7.991581043750000E+01
   8.128186069410000E+01   8.267126167350000E+01   8.408441252350001E+01
   8.552171921500000E+01   8.698359465860000E+01   8.847045882259999E+01
   8.998273885440000E+01   9.152086920280000E+01   9.308529174290000E+01
   9.467645590300000E+01   9.629481879370000E+01   9.794084533950000E+01
   9.961500841180001E+01   1.013177889650000E+02   1.030496761760000E+02
   1.048111675820000E+02   1.066027692240000E+02   1.084249957970000E+02
   1.102783707890000E+02   1.121634266410000E+02   1.140807048910000E+02
   1.160307563380000E+02   1.180141411920000E+02   1.200314292420000E+02
   1.220832000170000E+02   1.241700429490000E+02   1.262925575480000E+02
   1.284513535730000E+02   1.306470512030000E+02   1.328802812190000E+02
   1.351516851860000E+02   1.374619156330000E+02   1.398116362460000E+02
   1.422015220540000E+02   1.446322596240000E+02   1.471045472600000E+02
   1.496190952030000E+02   1.521766258340000E+02   1.547778738820000E+02
   1.574235866340000E+02   1.601145241540000E+02   1.628514594960000E+02
   1.656351789270000E+02   1.684664821570000E+02   1.713461825640000E+02
   1.742751074300000E+02   1.772540981800000E+02   1.802840106190000E+02
   1.833657151830000E+02   1.865000971850000E+02   1.896880570730000E+02
   1.929305106860000E+02   1.962283895190000E+02   1.995826409870000E+02
   2.029942287040000E+02
    </PP_R>
    <PP_RAB>
   1.000303541830000E-06   1.017402334850000E-06   1.034793407860000E-06
   1.052481756990000E-06   1.070472463770000E-06   1.088770696570000E-06
   1.107381712130000E-06   1.126310857020000E-06   1.145563569230000E-06
   1.165145379680000E-06   1.185061913850000E-06   1.205318893380000E-06
   1.225922137700000E-06   1.246877565730000E-06   1.268191197560000E-06
   1.289869156180000E-06   1.311917669250000E-06   1.334343070870000E-06
   1.357151803440000E-06   1.380350419460000E-06   1.403945583450000E-06
   1.427944073830000E-06   1.452352784910000E-06   1.477178728850000E-06
   1.502429037650000E-06   1.528110965230000E-06   1.554231889530000E-06
   1.580799314580000E-06   1.607820872680000E-06   1.635304326600000E-06
   1.663257571810000E-06   1.691688638730000E-06   1.720605695070000E-06
   1.750017048120000E-06   1.779931147210000E-06   1.810356586080000E-06
   1.841302105360000E-06   1.872776595110000E-06   1.904789097330000E-06
   1.937348808600000E-06   1.970465082690000E-06   2.004147433270000E-06
   2.038405536630000E-06   2.073249234450000E-06   2.108688536660000E-06
   2.144733624280000E-06   2.181394852360000E-06   2.218682752980000E-06
   2.256608038220000E-06   2.295181603280000E-06   2.334414529600000E-06
   2.374318088040000E-06   2.414903742130000E-06   2.456183151330000E-06
   2.498168174420000E-06   2.540870872880000E-06   2.584303514380000E-06
   2.628478576270000E-06   2.673408749190000E-06   2.719106940710000E-06
   2.765586279040000E-06   2.812860116790000E-06   2.860942034820000E-06
   2.909845846140000E-06   2.959585599860000E-06   3.010175585250000E-06
   3.061630335840000E-06   3.113964633580000E-06   3.167193513100000E-06
   3.221332266020000E-06   3.276396445380000E-06   3.332401870030000E-06
   3.389364629250000E-06   3.447301087340000E-06   3.506227888330000E-06
   3.566161960740000E-06   3.627120522480000E-06   3.689121085750000E-06
   3.752181462120000E-06   3.816319767620000E-06   3.881554427940000E-06
   3.947904183740000E-06   4.015388096010000E-06   4.084025551580000E-06
   4.153836268670000E-06   4.224840302530000E-06   4.297058051260000E-06
   4.370510261610000E-06   4.445218034990000E-06   4.521202833490000E-06
   4.598486486080000E-06   4.677091194850000E-06   4.757039541410000E-06
   4.838354493380000E-06   4.921059410970000E-06   5.005178053710000E-06
   5.090734587240000E-06   5.177753590310000E-06   5.266260061790000E-06
   5.356279427890000E-06   5.447837549410000E-06   5.540960729240000E-06
   5.635675719870000E-06   5.732009731070000E-06   5.829990437760000E-06
   5.929645987880000E-06   6.031005010540000E-06   6.134096624250000E-06
   6.238950445210000E-06   6.345596595910000E-06   6.454065713710000E-06
   6.564388959710000E-06   6.676598027620000E-06   6.790725152950000E-06
   6.906803122220000E-06   7.024865282360000E-06   7.144945550370000E-06
   7.267078422970000E-06   7.391298986580000E-06   7.517642927350000E-06
   7.646146541470000E-06   7.776846745530000E-06   7.909781087180000E-06
   8.044987755860001E-06   8.182505593860000E-06   8.322374107370000E-06
   8.464633477909999E-06   8.609324573860000E-06   8.756488962160001E-06
   8.906168920290000E-06   9.058407448420000E-06   9.213248281710000E-06
   9.370735902950001E-06   9.530915555290001E-06   9.693833255229999E-06
   9.859535805880001E-06   1.002807081040000E-05   1.019948668560000E-05
   1.037383267590000E-05   1.055115886770000E-05   1.073151620320000E-05
   1.091495649560000E-05   1.110153244380000E-05   1.129129764750000E-05
   1.148430662250000E-05   1.168061481660000E-05   1.188027862520000E-05
   1.208335540800000E-05   1.228990350510000E-05   1.249998225350000E-05
   1.271365200500000E-05   1.293097414270000E-05   1.315201109900000E-05
   1.337682637360000E-05   1.360548455160000E-05   1.383805132200000E-05
   1.407459349680000E-05   1.431517902990000E-05   1.455987703700000E-05
   1.480875781500000E-05   1.506189286250000E-05   1.531935490040000E-05
   1.558121789250000E-05   1.584755706700000E-05   1.611844893800000E-05
   1.639397132750000E-05   1.667420338770000E-05   1.695922562390000E-05
   1.724911991740000E-05   1.754396954930000E-05   1.784385922410000E-05
   1.814887509440000E-05   1.845910478530000E-05   1.877463741990000E-05
   1.909556364440000E-05   1.942197565490000E-05   1.975396722310000E-05
   2.009163372390000E-05   2.043507216230000E-05   2.078438120140000E-05
   2.113966119110000E-05   2.150101419640000E-05   2.186854402690000E-05
   2.224235626700000E-05   2.262255830570000E-05   2.300925936760000E-05
   2.340257054440000E-05   2.380260482690000E-05   2.420947713720000E-05
   2.462330436180000E-05   2.504420538530000E-05   2.547230112430000E-05
   2.590771456250000E-05   2.635057078580000E-05   2.680099701820000E-05
   2.725912265840000E-05   2.772507931700000E-05   2.819900085440000E-05
   2.868102341910000E-05   2.917128548690000E-05   2.966992790040000E-05
   3.017709391010000E-05   3.069292921500000E-05   3.121758200440000E-05
   3.175120300110000E-05   3.229394550400000E-05   3.284596543250000E-05
   3.340742137130000E-05   3.397847461580000E-05   3.455928921850000E-05
   3.515003203630000E-05   3.575087277810000E-05   3.636198405390000E-05
   3.698354142400000E-05   3.761572344990000E-05   3.825871174520000E-05
   3.891269102820000E-05   3.957784917420000E-05   4.025437727050000E-05
   4.094246967030000E-05   4.164232404950000E-05   4.235414146250000E-05
   4.307812640080000E-05   4.381448685120000E-05   4.456343435580000E-05
   4.532518407280000E-05   4.609995483810000E-05   4.688796922830000E-05
   4.768945362480000E-05   4.850463827850000E-05   4.933375737610000E-05
   5.017704910760000E-05   5.103475573430000E-05   5.190712365880000E-05
   5.279440349550000E-05   5.369685014260000E-05   5.461472285580000E-05
   5.554828532190000E-05   5.649780573560000E-05   5.746355687550000E-05
   5.844581618340000E-05   5.944486584330000E-05   6.046099286280000E-05
   6.149448915560000E-05   6.254565162520000E-05   6.361478225020000E-05
   6.470218817110000E-05   6.580818177860000E-05   6.693308080330000E-05
   6.807720840690001E-05   6.924089327520001E-05   7.042446971220000E-05
   7.162827773659999E-05   7.285266317910000E-05   7.409797778200000E-05
   7.536457930000000E-05   7.665283160330000E-05   7.796310478180000E-05
   7.929577525170000E-05   8.065122586340000E-05   8.202984601160001E-05
   8.343203174720000E-05   8.485818589100000E-05   8.630871814960000E-05
   8.778404523270000E-05   8.928459097340000E-05   9.081078644930000E-05
   9.236307010690000E-05   9.394188788720000E-05   9.554769335410000E-05
   9.718094782430000E-05   9.884212050030001E-05   1.005316886050000E-04
   1.022501375180000E-04   1.039979609170000E-04   1.057756609180000E-04
   1.075837482200000E-04   1.094227422500000E-04   1.112931713170000E-04