<UPF version="2.0.1">
  <PP_INFO>
    Generated by new atomic code, or converted to UPF format
    Author: 
    Generation date: 
    Pseudopotential type: US
    Element: N
    Functional: SLA  PZ   NOGX NOGC
    Suggested minimum cutoff for wavefunctions:   0. Ry
    Suggested minimum cutoff for charge density:   0. Ry
    The Pseudo was generated with a Non-Relativistic Calculation
    L component and cutoff radius for Local Potential:  0   0.0000
    Valence configuration: 
    nl pn  l   occ       Rcut    Rcut US       E pseu
    2S  1  0  2.00      0.000      0.000     0.000000
    2P  2  1  3.00      0.000      0.000     0.000000
    Generation configuration: not available.
  </PP_INFO>
    <!-- END OF HUMAN READABLE SECTION -->
  <PP_HEADER generated="Generated by new atomic code, or converted to UPF format" author="" date="" comment="" element="N" pseudo_type="US" relativistic="no" is_ultrasoft="true" is_paw="false" is_coulomb="false" has_so="false" has_wfc="false" has_gipaw="false" paw_as_gipaw="false" core_correction="true" functional="SLA  PZ   NOGX NOGC" z_valence="5.0000000000000000" total_psenergy="-19.483073607700000" wfc_cutoff="0.0000000000000000" rho_cutoff="0.0000000000000000" l_max="1" l_max_rho="0" l_local="0" mesh_size="729" number_of_wfc="2" number_of_proj="4"/>
  <PP_MESH>
    <PP_R>
   0.000000000000000E+00   6.052972725710000E-06   1.220941257260000E-05
   1.847108816660000E-05   2.483979836600000E-05   3.131737277800000E-05
   3.790567228440000E-05   4.460658957610000E-05   5.142204969710000E-05
   5.835401059700000E-05   6.540446369430000E-05   7.257543444750000E-05
   7.986898293780000E-05   8.728720446060000E-05   9.483223012730000E-05
   1.025062274780000E-04   1.103114011030000E-04   1.182499932790000E-04
   1.263242846080000E-04   1.345365946790000E-04   1.428892827300000E-04
   1.513847483260000E-04   1.600254320500000E-04   1.688138162030000E-04
   1.777524255170000E-04   1.868438278840000E-04   1.960906350850000E-04
   2.054955035510000E-04   2.150611351180000E-04   2.247902778060000E-04
   2.346857266100000E-04   2.447503243020000E-04   2.549869622450000E-04
   2.653985812270000E-04   2.759881723050000E-04   2.867587776630000E-04
   2.977134914880000E-04   3.088554608580000E-04   3.201878866440000E-04
   3.317140244340000E-04   3.434371854620000E-04   3.553607375680000E-04
   3.674881061560000E-04   3.798227751850000E-04   3.923682881670000E-04
   4.051282491840000E-04   4.181063239270000E-04   4.313062407460000E-04
   4.447317917200000E-04   4.583868337520000E-04   4.722752896700000E-04
   4.864011493580000E-04   5.007684709040000E-04   5.153813817610000E-04
   5.302440799340000E-04   5.453608351910000E-04   5.607359902810000E-04
   5.763739621900000E-04   5.922792434040000E-04   6.084564032030000E-04
   6.249100889710000E-04   6.416450275350000E-04   6.586660265180000E-04
   6.759779757240000E-04   6.935858485400000E-04   7.114947033690000E-04
   7.297096850769999E-04   7.482360264760000E-04   7.670790498260000E-04
   7.862441683630000E-04   8.057368878540000E-04   8.255628081800000E-04
   8.457276249450000E-04   8.662371311100000E-04   8.870972186600000E-04
   9.083138802940000E-04   9.298932111480000E-04   9.518414105470000E-04
   9.741647837830000E-04   9.968697439299999E-04   1.019962813680000E-03
   1.043450627230000E-03   1.067339932180000E-03   1.091637591450000E-03
   1.116350585300000E-03   1.141486013290000E-03   1.167051096340000E-03
   1.193053178800000E-03   1.219499730580000E-03   1.246398349250000E-03
   1.273756762260000E-03   1.301582829170000E-03   1.329884543850000E-03
   1.358670036850000E-03   1.387947577680000E-03   1.417725577200000E-03
   1.448012590070000E-03   1.478817317160000E-03   1.510148608070000E-03
   1.542015463660000E-03   1.574427038680000E-03   1.607392644340000E-03
   1.640921751020000E-03   1.675023990990000E-03   1.709709161160000E-03
   1.744987225900000E-03   1.780868319920000E-03   1.817362751170000E-03
   1.854481003790000E-03   1.892233741140000E-03   1.930631808850000E-03
   1.969686237930000E-03   2.009408247970000E-03   2.049809250340000E-03
   2.090900851460000E-03   2.132694856150000E-03   2.175203271020000E-03
   2.218438307920000E-03   2.262412387440000E-03   2.307138142470000E-03
   2.352628421870000E-03   2.398896294110000E-03   2.445955051050000E-03
   2.493818211770000E-03   2.542499526420000E-03   2.592012980200000E-03
   2.642372797370000E-03   2.693593445340000E-03   2.745689638800000E-03
   2.798676343970000E-03   2.852568782930000E-03   2.907382437920000E-03
   2.963133055840000E-03   3.019836652760000E-03   3.077509518540000E-03
   3.136168221470000E-03   3.195829613070000E-03   3.256510832880000E-03
   3.318229313470000E-03   3.381002785340000E-03   3.444849282110000E-03
   3.509787145630000E-03   3.575835031310000E-03   3.643011913410000E-03
   3.711337090560000E-03   3.780830191250000E-03   3.851511179520000E-03
   3.923400360640000E-03   3.996518386980000E-03   4.070886263940000E-03
   4.146525355960000E-03   4.223457392700000E-03   4.301704475240000E-03
   4.381289082450000E-03   4.462234077450000E-03   4.544562714180000E-03
   4.628298644050000E-03   4.713465922780000E-03   4.800089017280000E-03
   4.888192812690000E-03   4.977802619520000E-03   5.068944180930000E-03
   5.161643680150000E-03   5.255927747920000E-03   5.351823470260000E-03
   5.449358396130000E-03   5.548560545440000E-03   5.649458417040000E-03
   5.752080996940000E-03   5.856457766630000E-03   5.962618711530000E-03
   6.070594329610000E-03   6.180415640200000E-03   6.292114192820000E-03
   6.405722076320000E-03   6.521271928020000E-03   6.638796943180000E-03
   6.758330884460000E-03   6.879908091630000E-03   7.003563491490000E-03
   7.129332607840000E-03   7.257251571700000E-03   7.387357131730000E-03
   7.519686664720000E-03   7.654278186410000E-03   7.791170362310000E-03
   7.930402518920000E-03   8.072014654930000E-03   8.216047452769999E-03
   8.362542290270000E-03   8.511541252570001E-03   8.663087144190000E-03
   8.817223501320000E-03   8.973994604369999E-03   9.133445490620000E-03
   9.295621967249999E-03   9.460570624409999E-03   9.628338848660000E-03
   9.798974836560000E-03   9.972527608540000E-03   1.014904702290000E-02
   1.032858379040000E-02   1.051118948830000E-02   1.069691657580000E-02
   1.088581840860000E-02   1.107794925460000E-02   1.127336430930000E-02
   1.147211971160000E-02   1.167427256020000E-02   1.187988092960000E-02
   1.208900388700000E-02   1.230170150960000E-02   1.251803490130000E-02
   1.273806621030000E-02   1.296185864750000E-02   1.318947650400000E-02
   1.342098517020000E-02   1.365645115390000E-02   1.389594209990000E-02
   1.413952680950000E-02   1.438727525970000E-02   1.463925862390000E-02
   1.489554929210000E-02   1.515622089150000E-02   1.542134830820000E-02
   1.569100770800000E-02   1.596527655890000E-02   1.624423365300000E-02
   1.652795912940000E-02   1.681653449680000E-02   1.711004265730000E-02
   1.740856793030000E-02   1.771219607610000E-02   1.802101432140000E-02
   1.833511138360000E-02   1.865457749670000E-02   1.897950443710000E-02
   1.930998555020000E-02   1.964611577660000E-02   1.998799168010000E-02
   2.033571147510000E-02   2.068937505470000E-02   2.104908401960000E-02
   2.141494170730000E-02   2.178705322150000E-02   2.216552546270000E-02
   2.255046715880000E-02   2.294198889580000E-02   2.334020315060000E-02
   2.374522432220000E-02   2.415716876560000E-02   2.457615482430000E-02
   2.500230286490000E-02   2.543573531160000E-02   2.587657668100000E-02
   2.632495361840000E-02   2.678099493380000E-02   2.724483163900000E-02
   2.771659698530000E-02   2.819642650180000E-02   2.868445803430000E-02
   2.918083178470000E-02   2.968569035160000E-02   3.019917877110000E-02
   3.072144455860000E-02   3.125263775080000E-02   3.179291094920000E-02
   3.234241936400000E-02   3.290132085830000E-02   3.346977599350000E-02
   3.404794807600000E-02   3.463600320330000E-02   3.523411031230000E-02
   3.584244122760000E-02   3.646117071090000E-02   3.709047651130000E-02
   3.773053941600000E-02   3.838154330280000E-02   3.904367519240000E-02
   3.971712530270000E-02   4.040208710270000E-02   4.109875736880000E-02
   4.180733624070000E-02   4.252802727960000E-02   4.326103752600000E-02
   4.400657755950000E-02   4.476486155950000E-02   4.553610736610000E-02
   4.632053654340000E-02   4.711837444280000E-02   4.792985026760000E-02
   4.875519713910000E-02   4.959465216350000E-02   5.044845650000000E-02
   5.131685543000000E-02   5.220009842780000E-02   5.309843923200000E-02
   5.401213591850000E-02   5.494145097470000E-02   5.588665137480000E-02
   5.684800865660000E-02   5.782579899950000E-02   5.882030330360000E-02
   5.983180727090000E-02   6.086060148680000E-02   6.190698150410000E-02
   6.297124792740000E-02   6.405370649990000E-02   6.515466819110000E-02
   6.627444928579999E-02   6.741337147550000E-02   6.857176195060000E-02
   6.974995349420000E-02   7.094828457790001E-02   7.216709945910001E-02
   7.340674827969999E-02   7.466758716680000E-02   7.594997833510000E-02
   7.725429019060000E-02   7.858089743700000E-02   7.993018118290000E-02
   8.130252905130000E-02   8.269833529120001E-02   8.411800089080000E-02
   8.556193369249999E-02   8.703054851030000E-02   8.852426724880000E-02
   9.004351902450000E-02   9.158874028900001E-02   9.316037495450000E-02
   9.475887452120001E-02   9.638469820709999E-02   9.803831307990001E-02
   9.972019419110000E-02   1.014308247130000E-01   1.031706960760000E-01
   1.049403081110000E-01   1.067401691950000E-01   1.085707963920000E-01
   1.104327156060000E-01   1.123264617310000E-01   1.142525788030000E-01
   1.162116201580000E-01   1.182041485900000E-01   1.202307365160000E-01
   1.222919661340000E-01   1.243884295950000E-01   1.265207291740000E-01
   1.286894774380000E-01   1.308952974260000E-01   1.331388228290000E-01
   1.354206981680000E-01   1.377415789810000E-01   1.401021320120000E-01
   1.425030354030000E-01   1.449449788870000E-01   1.474286639870000E-01
   1.499548042170000E-01   1.525241252890000E-01   1.551373653190000E-01
   1.577952750400000E-01   1.604986180180000E-01   1.632481708720000E-01
   1.660447234940000E-01   1.688890792810000E-01   1.717820553600000E-01
   1.747244828270000E-01   1.777172069860000E-01   1.807610875880000E-01
   1.838569990800000E-01   1.870058308590000E-01   1.902084875220000E-01
   1.934658891320000E-01   1.967789714760000E-01   2.001486863380000E-01
   2.035760017740000E-01   2.070619023830000E-01   2.106073895990000E-01
   2.142134819700000E-01   2.178812154580000E-01   2.216116437310000E-01
   2.254058384690000E-01   2.292648896710000E-01   2.331899059670000E-01
   2.371820149400000E-01   2.412423634430000E-01   2.453721179380000E-01
   2.495724648220000E-01   2.538446107740000E-01   2.581897830990000E-01
   2.626092300810000E-01   2.671042213410000E-01   2.716760482030000E-01
   2.763260240650000E-01   2.810554847750000E-01   2.858657890150000E-01
   2.907583186930000E-01   2.957344793370000E-01   3.007957005030000E-01
   3.059434361820000E-01   3.111791652170000E-01   3.165043917330000E-01
   3.219206455650000E-01   3.274294826970000E-01   3.330324857110000E-01
   3.387312642420000E-01   3.445274554390000E-01   3.504227244360000E-01
   3.564187648280000E-01   3.625172991630000E-01   3.687200794300000E-01
   3.750288875700000E-01   3.814455359810000E-01   3.879718680400000E-01
   3.946097586380000E-01   4.013611147120000E-01   4.082278757960000E-01
   4.152120145770000E-01   4.223155374640000E-01   4.295404851600000E-01
   4.368889332540000E-01   4.443629928130000E-01   4.519648109880000E-01
   4.596965716370000E-01   4.675604959430000E-01   4.755588430600000E-01
   4.836939107580000E-01   4.919680360860000E-01   5.003835960380000E-01
   5.089430082430000E-01   5.176487316540000E-01   5.265032672570000E-01
   5.355091587880000E-01   5.446689934660000E-01   5.539854027350000E-01
   5.634610630180000E-01   5.730986964890000E-01   5.829010718540000E-01
   5.928710051450000E-01   6.030113605320000E-01   6.133250511420000E-01
   6.238150399000000E-01   6.344843403750000E-01   6.453360176510000E-01
   6.563731892060000E-01   6.675990258050000E-01   6.790167524130000E-01
   6.906296491240000E-01   7.024410520960001E-01   7.144543545180000E-01
   7.266730075790000E-01   7.391005214620000E-01   7.517404663500000E-01
   7.645964734560000E-01   7.776722360610000E-01   7.909715105789999E-01
   8.044981176350000E-01   8.182559431600001E-01   8.322489395120000E-01
   8.464811266080000E-01   8.609565930790000E-01   8.756794974480000E-01
   8.906540693190000E-01   9.058846105980000E-01   9.213754967240000E-01
   9.371311779290000E-01   9.531561805160000E-01   9.694551081570000E-01
   9.860326432190000E-01   1.002893548110000E+00   1.020042666630000E+00
   1.037484925410000E+00   1.055225335250000E+00   1.073268992640000E+00
   1.091621081180000E+00   1.110286873050000E+00   1.129271730590000E+00
   1.148581107770000E+00   1.168220551800000E+00   1.188195704720000E+00
   1.208512305010000E+00   1.229176189220000E+00   1.250193293690000E+00
   1.271569656230000E+00   1.293311417860000E+00   1.315424824550000E+00
   1.337916229080000E+00   1.360792092770000E+00   1.384058987430000E+00
   1.407723597180000E+00   1.431792720410000E+00   1.456273271710000E+00
   1.481172283870000E+00   1.506496909890000E+00   1.532254425050000E+00
   1.558452228980000E+00   1.585097847810000E+00   1.612198936310000E+00
   1.639763280090000E+00   1.667798797860000E+00   1.696313543680000E+00
   1.725315709290000E+00   1.754813626430000E+00   1.784815769310000E+00
   1.815330756950000E+00   1.846367355710000E+00   1.877934481810000E+00
   1.910041203880000E+00   1.942696745550000E+00   1.975910488140000E+00
   2.009691973300000E+00   2.044050905800000E+00   2.078997156300000E+00
   2.114540764190000E+00   2.150691940440000E+00   2.187461070600000E+00
   2.224858717720000E+00   2.262895625430000E+00   2.301582720990000E+00
   2.340931118460000E+00   2.380952121870000E+00   2.421657228480000E+00
   2.463058132070000E+00   2.505166726340000E+00   2.547995108250000E+00
   2.591555581580000E+00   2.635860660410000E+00   2.680923072730000E+00
   2.726755764100000E+00   2.773371901360000E+00   2.820784876430000E+00
   2.869008310140000E+00   2.918056056150000E+00   2.967942204930000E+00
   3.018681087790000E+00   3.070287281050000E+00   3.122775610160000E+00
   3.176161154000000E+00   3.230459249200000E+00   3.285685494570000E+00
   3.341855755520000E+00   3.398986168700000E+00   3.457093146550000E+00
   3.516193382100000E+00   3.576303853690000E+00   3.637441829910000E+00
   3.699624874500000E+00   3.762870851450000E+00   3.827197930120000E+00
   3.892624590420000E+00   3.959169628160000E+00   4.026852160460000E+00
   4.095691631180000E+00   4.165707816590000E+00   4.236920830970000E+00
   4.309351132440000E+00   4.383019528840000E+00   4.457947183650000E+00
   4.534155622160000E+00   4.611666737560000E+00   4.690502797310000E+00
   4.770686449470000E+00   4.852240729260000E+00   4.935189065650000E+00
   5.019555288080000E+00   5.105363633350000E+00   5.192638752520000E+00
   5.281405718050000E+00   5.371690030970000E+00   5.463517628220000E+00
   5.556914890080000E+00   5.651908647800000E+00   5.748526191220000E+00
   5.846795276710000E+00   5.946744135080000E+00   6.048401479680000E+00
   6.151796514720000E+00   6.256958943580000E+00   6.363918977390000E+00
   6.472707343710000E+00   6.583355295330000E+00   6.695894619260000E+00
   6.810357645860000E+00   6.926777258170000E+00   7.045186901260000E+00
   7.165620591950000E+00   7.288112928510000E+00   7.412699100600000E+00
   7.539414899440000E+00   7.668296728010000E+00   7.799381611570000E+00
   7.932707208270000E+00   8.068311819970001E+00   8.206234403260000E+00
   8.346514580619999E+00   8.489192651840000E+00   8.634309605569999E+00
   8.781907131090000E+00   8.932027630320000E+00   9.084714229970000E+00
   9.240010793960000E+00   9.397961935970001E+00   9.558613032309999E+00
   9.722010234940001E+00   9.888200484710000E+00   1.005723152490000E+01
   1.022915191470000E+01   1.040401104380000E+01   1.058185914550000E+01
   1.076274731240000E+01   1.094672751010000E+01   1.113385259240000E+01
   1.132417631690000E+01   1.151775335980000E+01   1.171463933220000E+01
   1.191489079540000E+01   1.211856527800000E+01   1.232572129150000E+01
   1.253641834800000E+01   1.275071697670000E+01   1.296867874130000E+01
   1.319036625810000E+01   1.341584321360000E+01   1.364517438290000E+01
   1.387842564860000E+01   1.411566401910000E+01   1.435695764850000E+01
   1.460237585570000E+01   1.485198914460000E+01   1.510586922440000E+01
   1.536408902980000E+01   1.562672274240000E+01   1.589384581180000E+01
   1.616553497730000E+01   1.644186828980000E+01   1.672292513470000E+01
   1.700878625410000E+01   1.729953377040000E+01   1.759525120980000E+01
   1.789602352600000E+01   1.820193712520000E+01   1.851307989050000E+01
   1.882954120710000E+01   1.915141198820000E+01   1.947878470110000E+01
   1.981175339370000E+01   2.015041372140000E+01   2.049486297480000E+01
   2.084520010740000E+01   2.120152576430000E+01   2.156394231110000E+01
   2.193255386300000E+01   2.230746631490000E+01   2.268878737190000E+01
   2.307662658020000E+01   2.347109535850000E+01   2.387230703010000E+01
   2.428037685520000E+01   2.469542206450000E+01   2.511756189240000E+01
   2.554691761150000E+01   2.598361256740000E+01   2.642777221410000E+01
   2.687952415020000E+01   2.733899815500000E+01   2.780632622680000E+01
   2.828164261970000E+01   2.876508388310000E+01   2.925678890010000E+01
   2.975689892810000E+01   3.026555763910000E+01   3.078291116090000E+01
   3.130910811910000E+01   3.184429968000000E+01   3.238863959370000E+01
   3.294228423850000E+01   3.350539266580000E+01   3.407812664580000E+01
   3.466065071390000E+01   3.525313221790000E+01   3.585574136640000E+01
   3.646865127730000E+01   3.709203802770000E+01   3.772608070460000E+01
   3.837096145620000E+01   3.902686554420000E+01   3.969398139730000E+01
   4.037250066480000E+01   4.106261827220000E+01   4.176453247700000E+01
   4.247844492550000E+01   4.320456071100000E+01   4.394308843240000E+01
   4.469424025460000E+01   4.545823196880000E+01   4.623528305520000E+01
   4.702561674540000E+01   4.782946008710000E+01   4.864704400880000E+01
   4.947860338660000E+01   5.032437711150000E+01   5.118460815780000E+01
   5.205954365330000E+01   5.294943495000000E+01   5.385453769650000E+01
   5.477511191120000E+01   5.571142205750000E+01   5.666373711890000E+01
   5.763233067720000E+01   5.861748099070000E+01   5.961947107380000E+01
   6.063858877910000E+01   6.167512687920000E+01   6.272938315150000E+01
   6.380166046350000E+01   6.489226685960000E+01   6.600151565000000E+01
   6.712972550040000E+01   6.827722052370000E+01   6.944433037290000E+01
   7.063139033610000E+01   7.183874143280001E+01   7.306673051140000E+01
   7.431571034949999E+01   7.558603975490000E+01   7.687808366860000E+01
   7.819221326980001E+01   7.952880608250000E+01   8.088824608400000E+01
    </PP_R>
    <PP_RAB>
   6.001821251010000E-06   6.104414009070000E-06   6.208760447150000E-06
   6.314890541970000E-06   6.422834782630000E-06   6.532624179450000E-06
   6.644290272780000E-06   6.757865142130000E-06   6.873381415370000E-06
   6.990872278080000E-06   7.110371483110000E-06   7.231913360290000E-06
   7.355532826230000E-06   7.481265394410000E-06   7.609147185370000E-06
   7.739214937070000E-06   7.871506015470000E-06   8.006058425220000E-06
   8.142910820640001E-06   8.282102516760000E-06   8.423673500669999E-06
   8.567664442970001E-06   8.714116709480000E-06   8.863072373090000E-06
   9.014574225880000E-06   9.168665791410000E-06   9.325391337200000E-06
   9.484795887469999E-06   9.646925236050001E-06   9.811825959580000E-06
   9.979545430840000E-06   1.015013183240000E-05   1.032363417040000E-05
   1.050010228870000E-05   1.067958688330000E-05   1.086213951650000E-05
   1.104781263220000E-05   1.123665957060000E-05   1.142873458400000E-05
   1.162409285160000E-05   1.182279049610000E-05   1.202488459960000E-05
   1.223043321980000E-05   1.243949540670000E-05   1.265213121990000E-05
   1.286840174570000E-05   1.308836911420000E-05   1.331209651790000E-05
   1.353964822930000E-05   1.377108961970000E-05   1.400648717760000E-05
   1.424590852830000E-05   1.448942245280000E-05   1.473709890800000E-05
   1.498900904650000E-05   1.524522523730000E-05   1.550582108630000E-05
   1.577087145760000E-05   1.604045249510000E-05   1.631464164430000E-05
   1.659351767420000E-05   1.687716070080000E-05   1.716565220890000E-05
   1.745907507680000E-05   1.775751359910000E-05   1.806105351150000E-05
   1.836978201500000E-05   1.868378780150000E-05   1.900316107860000E-05
   1.932799359610000E-05   1.965837867230000E-05   1.999441122020000E-05
   2.033618777550000E-05   2.068380652410000E-05   2.103736733000000E-05
   2.139697176450000E-05   2.176272313490000E-05   2.213472651450000E-05
   2.251308877270000E-05   2.289791860570000E-05   2.328932656770000E-05
   2.368742510240000E-05   2.409232857610000E-05   2.450415330950000E-05
   2.492301761200000E-05   2.534904181520000E-05   2.578234830750000E-05
   2.622306156970000E-05   2.667130820990000E-05   2.712721700090000E-05
   2.759091891650000E-05   2.806254716910000E-05   2.854223724850000E-05
   2.903012696030000E-05   2.952635646580000E-05   3.003106832220000E-05
   3.054440752340000E-05   3.106652154190000E-05   3.159756037080000E-05
   3.213767656730000E-05   3.268702529650000E-05   3.324576437540000E-05
   3.381405431920000E-05   3.439205838640000E-05   3.497994262650000E-05
   3.557787592730000E-05   3.618603006330000E-05   3.680457974550000E-05
   3.743370267130000E-05   3.807357957540000E-05   3.872439428230000E-05
   3.938633375820000E-05   4.005958816570000E-05   4.074435091770000E-05
   4.144081873330000E-05   4.214919169420000E-05   4.286967330220000E-05
   4.360247053780000E-05   4.434779391950000E-05   4.510585756410000E-05
   4.587687924880000E-05   4.666108047320000E-05   4.745868652310000E-05
   4.826992653520000E-05   4.909503356310000E-05   4.993424464420000E-05
   5.078780086750000E-05   5.165594744320000E-05   5.253893377300000E-05
   5.343701352180000E-05   5.435044469050000E-05   5.527948969030000E-05
   5.622441541770000E-05   5.718549333170000E-05   5.816299953140000E-05
   5.915721483530000E-05   6.016842486230000E-05   6.119692011350000E-05
   6.224299605549999E-05   6.330695320590000E-05   6.438909721900000E-05
   6.548973897360000E-05   6.660919466300001E-05   6.774778588510000E-05
   6.890583973500001E-05   7.008368889940000E-05   7.128167175140000E-05
   7.250013244830000E-05   7.373942103030000E-05   7.499989352110000E-05
   7.628191202999999E-05   7.758584485609999E-05   7.891206659400000E-05
   8.026095824170000E-05   8.163290730960000E-05   8.302830793200000E-05
   8.444756098070000E-05   8.589107417949999E-05   8.735926222179999E-05
   8.885254688980000E-05   9.037135717500000E-05   9.191612940240000E-05
   9.348730735520000E-05   9.508534240230000E-05   9.671069362820000E-05
   9.836382796499999E-05   1.000452203260000E-04   1.017553537430000E-04
   1.034947195040000E-04   1.052638172960000E-04   1.070631553450000E-04
   1.088932505660000E-04   1.107546287120000E-04   1.126478245190000E-04
   1.145733818670000E-04   1.165318539290000E-04   1.185238033390000E-04
   1.205498023430000E-04   1.226104329740000E-04   1.247062872090000E-04
   1.268379671470000E-04   1.290060851780000E-04   1.312112641620000E-04
   1.334541376020000E-04   1.357353498340000E-04   1.380555562050000E-04
   1.404154232670000E-04   1.428156289620000E-04   1.452568628230000E-04
   1.477398261710000E-04   1.502652323120000E-04   1.528338067460000E-04
   1.554462873750000E-04   1.581034247150000E-04   1.608059821090000E-04
   1.635547359500000E-04   1.663504759020000E-04   1.691940051270000E-04
   1.720861405150000E-04   1.750277129210000E-04   1.780195674020000E-04
   1.810625634610000E-04   1.841575752900000E-04   1.873054920260000E-04
   1.905072180070000E-04   1.937636730240000E-04   1.970757925950000E-04
   2.004445282280000E-04   2.038708476950000E-04   2.073557353110000E-04
   2.109001922180000E-04   2.145052366690000E-04   2.181719043230000E-04
   2.219012485440000E-04   2.256943406990000E-04   2.295522704710000E-04
   2.334761461690000E-04   2.374670950450000E-04   2.415262636230000E-04
   2.456548180220000E-04   2.498539442970000E-04   2.541248487750000E-04
   2.584687584050000E-04   2.628869211070000E-04   2.673806061350000E-04
   2.719511044370000E-04   2.765997290290000E-04   2.813278153700000E-04
   2.861367217490000E-04   2.910278296710000E-04   2.960025442570000E-04
   3.010622946460000E-04   3.062085344060000E-04   3.114427419530000E-04
   3.167664209730000E-04   3.221811008560000E-04   3.276883371350000E-04
   3.332897119320000E-04   3.389868344140000E-04   3.447813412530000E-04
   3.506748971000000E-04   3.566691950600000E-04   3.627659571770000E-04
   3.689669349340000E-04   3.752739097510000E-04   3.816886935010000E-04
   3.882131290260000E-04   3.948490906720000E-04   4.015984848200000E-04
   4.084632504420000E-04   4.154453596510000E-04   4.225468182730000E-04
   4.297696664190000E-04   4.371159790750000E-04   4.445878666920000E-04
   4.521874758000000E-04   4.599169896200000E-04   4.677786286910000E-04
   4.757746515100000E-04   4.839073551800000E-04   4.921790760690000E-04
   5.005921904830000E-04   5.091491153460000E-04   5.178523088980000E-04
   5.267042713960000E-04   5.357075458400000E-04   5.448647186960000E-04
   5.541784206410000E-04   5.636513273230000E-04   5.732861601240000E-04
   5.830856869460000E-04   5.930527230020000E-04   6.031901316290000E-04
   6.135008251090000E-04   6.239877655040000E-04   6.346539655100000E-04
   6.455024893180000E-04   6.565364535010000E-04   6.677590279030000E-04
   6.791734365510000E-04   6.907829585850000E-04   7.025909291960000E-04
   7.146007405850000E-04   7.268158429390000E-04   7.392397454200000E-04
   7.518760171750000E-04   7.647282883600000E-04   7.778002511850000E-04
   7.910956609700000E-04   8.046183372310000E-04   8.183721647690000E-04
   8.323610947950000E-04   8.465891460560000E-04   8.610604059960000E-04
   8.757790319289999E-04   8.907492522310000E-04   9.059753675560000E-04
   9.214617520730000E-04   9.372128547199999E-04   9.532332004850000E-04
   9.695273917020000E-04   9.861001093770000E-04   1.002956114530000E-03
   1.020100249570000E-03   1.037537439670000E-03   1.055272694200000E-03
   1.073311108160000E-03   1.091657863620000E-03   1.110318231270000E-03
   1.129297571860000E-03   1.148601337790000E-03   1.168235074650000E-03
   1.188204422850000E-03   1.208515119180000E-03   1.229172998520000E-03
   1.250183995480000E-03   1.271554146110000E-03   1.293289589640000E-03
   1.315396570240000E-03   1.337881438830000E-03   1.360750654860000E-03
   1.384010788220000E-03   1.407668521100000E-03   1.431730649910000E-03
   1.456204087230000E-03   1.481095863800000E-03   1.506413130550000E-03
   1.532163160650000E-03   1.558353351570000E-03   1.584991227260000E-03
   1.612084440250000E-03   1.639640773910000E-03   1.667668144640000E-03
   1.696174604150000E-03   1.725168341800000E-03   1.754657686940000E-03
   1.784651111270000E-03   1.815157231340000E-03   1.846184810950000E-03
   1.877742763730000E-03   1.909840155670000E-03   1.942486207740000E-03
   1.975690298500000E-03   2.009461966850000E-03   2.043810914740000E-03
   2.078747009960000E-03   2.114280288970000E-03   2.150420959790000E-03
   2.187179404940000E-03   2.224566184410000E-03   2.262592038700000E-03
   2.301267891890000E-03   2.340604854830000E-03   2.380614228240000E-03
   2.421307506050000E-03   2.462696378660000E-03   2.504792736280000E-03
   2.547608672380000E-03   2.591156487160000E-03   2.635448691060000E-03
   2.680498008360000E-03   2.726317380880000E-03   2.772919971620000E-03
   2.820319168610000E-03   2.868528588720000E-03   2.917562081580000E-03
   2.967433733580000E-03   3.018157871860000E-03   3.069749068500000E-03
   3.122222144650000E-03   3.175592174790000E-03   3.229874491120000E-03
   3.285084687890000E-03   3.341238625920000E-03   3.398352437150000E-03
   3.456442529280000E-03   3.515525590460000E-03   3.575618594110000E-03
   3.636738803800000E-03   3.698903778170000E-03   3.762131376010000E-03
   3.826439761410000E-03   3.891847408900000E-03   3.958373108840000E-03
   4.026035972770000E-03   4.094855438940000E-03   4.164851277830000E-03
   4.236043597900000E-03   4.308452851330000E-03   4.382099839880000E-03
   4.457005720930000E-03   4.533192013470000E-03   4.610680604360000E-03
   4.689493754560000E-03   4.769654105570000E-03   4.851184685910000E-03
   4.934108917740000E-03   5.018450623580000E-03   5.104234033170000E-03
   5.191483790430000E-03   5.280224960520000E-03   5.370483037070000E-03
   5.462283949470000E-03   5.555654070350000E-03   5.650620223130000E-03
   5.747209689770000E-03   5.845450218530000E-03   5.945370032030000E-03
   6.046997835280000E-03   6.150362824010000E-03   6.255494692950000E-03
   6.362423644480000E-03   6.471180397190000E-03   6.581796194820000E-03
   6.694302815120000E-03   6.808732579090000E-03   6.925118360170000E-03
   7.043493593750000E-03   7.163892286730000E-03   7.286349027350000E-03
   7.410898995050000E-03   7.537577970620000E-03   7.666422346480000E-03
   7.797469137130000E-03   7.930755989770000E-03   8.066321195150000E-03
   8.204203698510000E-03   8.344443110840000E-03   8.487079720200000E-03
   8.632154503330000E-03   8.779709137420001E-03   8.929786012040000E-03
   9.082428241390000E-03   9.237679676609999E-03   9.395584918450000E-03
   9.556189330030000E-03   9.719539049880000E-03   9.885681005209999E-03
   1.005466292540000E-02   1.022653335570000E-02   1.040134167110000E-02
   1.057913809070000E-02   1.075997369200000E-02   1.094390042550000E-02
   1.113097112980000E-02   1.132123954680000E-02   1.151476033670000E-02