<UPF version="2.0.1">
  <PP_INFO>
    Generated by new atomic code, or converted to UPF format
    Author: 
    Generation date: 
    Pseudopotential type: US
    Element: Na
    Functional:  SLA  PZ   NOGX NOGC
    Suggested minimum cutoff for wavefunctions:   0. Ry
    Suggested minimum cutoff for charge density:   0. Ry
    The Pseudo was generated with a Non-Relativistic Calculation
    L component and cutoff radius for Local Potential:  0   0.0000
    Valence configuration: 
    nl pn  l   occ       Rcut    Rcut US       E pseu
    2S  1  0  2.00      0.000      0.000     0.000000
    2P  2  1  6.00      0.000      0.000     0.000000
    3S  1  0  1.00      0.000      0.000     0.000000
    Generation configuration: not available.
  </PP_INFO>
    <!-- END OF HUMAN READABLE SECTION -->
  <PP_HEADER generated="Generated by new atomic code, or converted to UPF format" author="" date="" comment="" element="Na" pseudo_type="US" relativistic="no" is_ultrasoft="true" is_paw="false" is_coulomb="false" has_so="false" has_wfc="false" has_gipaw="false" paw_as_gipaw="false" core_correction="false" functional=" SLA  PZ   NOGX NOGC" z_valence="9.0000000000000000" total_psenergy="-95.025035497399998" wfc_cutoff="0.0000000000000000" rho_cutoff="0.0000000000000000" l_max="2" l_max_rho="0" l_local="0" mesh_size="819" number_of_wfc="3" number_of_proj="5"/>
  <PP_MESH>
    <PP_R>
   0.000000000000000E+00   5.201864669330000E-09   1.053541516970000E-08
   1.600398514380000E-08   2.161099262600000E-08   2.735994217830000E-08
   3.325442708140000E-08   3.929813158030000E-08   4.549483318690000E-08
   5.184840504160000E-08   5.836281833360000E-08   6.504214478320000E-08
   7.189055918690000E-08   7.891234202660001E-08   8.611188214520000E-08
   9.349367948960000E-08   1.010623479230000E-07   1.088226181110000E-07
   1.167793404740000E-07   1.249374882220000E-07   1.333021604630000E-07
   1.418785853910000E-07   1.506721235490000E-07   1.596882711860000E-07
   1.689326636870000E-07   1.784110790980000E-07   1.881294417370000E-07
   1.980938258990000E-07   2.083104596460000E-07   2.187857287070000E-07
   2.295261804680000E-07   2.405385280590000E-07   2.518296545570000E-07
   2.634066172830000E-07   2.752766522160000E-07   2.874471785140000E-07
   2.999258031520000E-07   3.127203256760000E-07   3.258387430810000E-07
   3.392892548020000E-07   3.530802678500000E-07   3.672204020540000E-07
   3.817184954610000E-07   3.965836098490000E-07   4.118250364000000E-07
   4.274523015010000E-07   4.434751727010000E-07   4.599036648170000E-07
   4.767480461910000E-07   4.940188451090000E-07   5.117268563840000E-07
   5.298831480980000E-07   5.484990685250000E-07   5.675862532220000E-07
   5.871566322990000E-07   6.072224378820000E-07   6.277962117520000E-07
   6.488908131860000E-07   6.705194269980000E-07   6.926955717760000E-07
   7.154331083320000E-07   7.387462483660000E-07   7.626495633490000E-07
   7.871579936330000E-07   8.122868577830000E-07   8.380518621570000E-07
   8.644691107230000E-07   8.915551151200000E-07   9.193268049820000E-07
   9.478015385210000E-07   9.769971133720001E-07   1.006931777720000E-06
   1.037624241700000E-06   1.069093689110000E-06   1.101359789370000E-06
   1.134442709850000E-06   1.168363128440000E-06   1.203142246530000E-06
   1.238801802170000E-06   1.275364083770000E-06   1.312851943930000E-06
   1.351288813790000E-06   1.390698717650000E-06   1.431106287970000E-06
   1.472536780800000E-06   1.515016091550000E-06   1.558570771180000E-06
   1.603228042760000E-06   1.649015818560000E-06   1.695962717430000E-06
   1.744098082690000E-06   1.793452000530000E-06   1.844055318750000E-06
   1.895939666070000E-06   1.949137471890000E-06   2.003681986580000E-06
   2.059607302230000E-06   2.116948373990000E-06   2.175741041890000E-06
   2.236022053260000E-06   2.297829085710000E-06   2.361200770620000E-06
   2.426176717380000E-06   2.492797538070000E-06   2.561104872860000E-06
   2.631141416060000E-06   2.702950942790000E-06   2.776578336350000E-06
   2.852069616250000E-06   2.929471967000000E-06   3.008833767580000E-06
   3.090204621720000E-06   3.173635388830000E-06   3.259178215870000E-06
   3.346886569880000E-06   3.436815271450000E-06   3.529020528940000E-06
   3.623559973630000E-06   3.720492695760000E-06   3.819879281430000E-06
   3.921781850500000E-06   4.026264095390000E-06   4.133391320890000E-06
   4.243230485030000E-06   4.355850240840000E-06   4.471320979340000E-06
   4.589714873500000E-06   4.711105923370000E-06   4.835570002290000E-06
   4.963184904370000E-06   5.094030393080000E-06   5.228188251110000E-06
   5.365742331480000E-06   5.506778609970000E-06   5.651385238850000E-06
   5.799652601970000E-06   5.951673371260000E-06   6.107542564650000E-06
   6.267357605450000E-06   6.431218383270000E-06   6.599227316430000E-06
   6.771489415980000E-06   6.948112351350000E-06   7.129206517610000E-06
   7.314885104510000E-06   7.505264167230000E-06   7.700462698860000E-06
   7.900602704840001E-06   8.105809279200000E-06   8.316210682720000E-06
   8.531938423130001E-06   8.753127337290000E-06   8.979915675459999E-06
   9.212445187759999E-06   9.450861212680000E-06   9.695312768010001E-06
   9.945952643919999E-06   1.020293749850000E-05   1.046642795560000E-05
   1.073658870550000E-05   1.101358860720000E-05   1.129760079490000E-05
   1.158880278530000E-05   1.188737658930000E-05   1.219350882500000E-05
   1.250739083520000E-05   1.282921880630000E-05   1.315919389130000E-05
   1.349752233530000E-05   1.384441560470000E-05   1.420009051900000E-05
   1.456476938660000E-05   1.493868014370000E-05   1.532205649670000E-05
   1.571513806820000E-05   1.611817054720000E-05   1.653140584190000E-05
   1.695510223790000E-05   1.738952455920000E-05   1.783494433390000E-05
   1.829163996400000E-05   1.875989689890000E-05   1.924000781460000E-05
   1.973227279600000E-05   2.023699952470000E-05   2.075450347140000E-05
   2.128510809290000E-05   2.182914503430000E-05   2.238695433650000E-05
   2.295888464830000E-05   2.354529344500000E-05   2.414654725100000E-05
   2.476302186960000E-05   2.539510261740000E-05   2.604318456560000E-05
   2.670767278640000E-05   2.738898260650000E-05   2.808753986690000E-05
   2.880378118860000E-05   2.953815424560000E-05   3.029111804500000E-05
   3.106314321380000E-05   3.185471229280000E-05   3.266632003850000E-05
   3.349847373200000E-05   3.435169349660000E-05   3.522651262230000E-05
   3.612347789970000E-05   3.704314996120000E-05   3.798610363170000E-05
   3.895292828810000E-05   3.994422822710000E-05   4.096062304360000E-05
   4.200274801740000E-05   4.307125451050000E-05   4.416681037420000E-05
   4.529010036670000E-05   4.644182658070000E-05   4.762270888260000E-05
   4.883348536240000E-05   5.007491279460000E-05   5.134776711190000E-05
   5.265284388970000E-05   5.399095884340000E-05   5.536294833840000E-05
   5.676966991290000E-05   5.821200281350000E-05   5.969084854540000E-05
   6.120713143520000E-05   6.276179920910000E-05   6.435582358510000E-05
   6.599020088020000E-05   6.766595263360000E-05   6.938412624460000E-05
   7.114579562760000E-05   7.295206188340000E-05   7.480405398720000E-05
   7.670292949420000E-05   7.864987526360000E-05   8.064610819980000E-05
   8.269287601340000E-05   8.479145800090000E-05   8.694316584430000E-05
   8.914934443110000E-05   9.141137269469999E-05   9.373066447639999E-05
   9.610866940910001E-05   9.854687382340001E-05   1.010468016760000E-04
   1.036100155040000E-04   1.062381173990000E-04   1.089327500090000E-04
   1.116955975700000E-04   1.145283869490000E-04   1.174328887330000E-04
   1.204109183290000E-04   1.234643371040000E-04   1.265950535430000E-04
   1.298050244460000E-04   1.330962561490000E-04   1.364708057790000E-04
   1.399307825400000E-04   1.434783490300000E-04   1.471157225930000E-04
   1.508451767060000E-04   1.546690424000000E-04   1.585897097140000E-04
   1.626096291940000E-04   1.667313134200000E-04   1.709573385790000E-04
   1.752903460750000E-04   1.797330441770000E-04   1.842882097170000E-04
   1.889586898220000E-04   1.937474036940000E-04   1.986573444340000E-04
   2.036915809160000E-04   2.088532597020000E-04   2.141456070080000E-04
   2.195719307230000E-04   2.251356224780000E-04   2.308401597600000E-04
   2.366891080910000E-04   2.426861232540000E-04   2.488349535780000E-04
   2.551394422840000E-04   2.616035298800000E-04   2.682312566330000E-04
   2.750267650880000E-04   2.819943026580000E-04   2.891382242820000E-04
   2.964629951430000E-04   3.039731934600000E-04   3.116735133540000E-04
   3.195687677730000E-04   3.276638915100000E-04   3.359639442800000E-04
   3.444741138860000E-04   3.531997194610000E-04   3.621462147930000E-04
   3.713191917320000E-04   3.807243836890000E-04   3.903676692130000E-04
   4.002550756730000E-04   4.103927830190000E-04   4.207871276480000E-04
   4.314446063640000E-04   4.423718804380000E-04   4.535757797730000E-04
   4.650633071700000E-04   4.768416427070000E-04   4.889181482280000E-04
   5.013003719410000E-04   5.139960531410000E-04   5.270131270400001E-04
   5.403597297330000E-04   5.540442032830000E-04   5.680751009290000E-04
   5.824611924410000E-04   5.972114695930000E-04   6.123351517890000E-04
   6.278416918230000E-04   6.437407817860000E-04   6.600423591280000E-04
   6.767566128650000E-04   6.938939899500000E-04   7.114652018020000E-04
   7.294812309990000E-04   7.479533381470000E-04   7.668930689130000E-04
   7.863122612470000E-04   8.062230527750000E-04   8.266378883900000E-04
   8.475695280290000E-04   8.690310546490000E-04   8.910358824010000E-04
   9.135977650210000E-04   9.367308044180000E-04   9.604494594950000E-04
   9.847685551839999E-04   1.009703291710000E-03   1.035269254100000E-03
   1.061482421910000E-03   1.088359179220000E-03   1.115916324880000E-03
   1.144171083000000E-03   1.173141113730000E-03   1.202844524280000E-03
   1.233299880250000E-03   1.264526217230000E-03   1.296543052690000E-03
   1.329370398200000E-03   1.363028771920000E-03   1.397539211420000E-03
   1.432923286860000E-03   1.469203114430000E-03   1.506401370210000E-03
   1.544541304320000E-03   1.583646755460000E-03   1.623742165810000E-03
   1.664852596300000E-03   1.707003742300000E-03   1.750221949630000E-03
   1.794534231100000E-03   1.839968283310000E-03   1.886552504030000E-03
   1.934316009910000E-03   1.983288654690000E-03   2.033501047890000E-03
   2.084984573870000E-03   2.137771411510000E-03   2.191894554310000E-03
   2.247387830990000E-03   2.304285926670000E-03   2.362624404490000E-03
   2.422439727900000E-03   2.483769283440000E-03   2.546651404070000E-03
   2.611125393170000E-03   2.677231549060000E-03   2.745011190260000E-03
   2.814506681250000E-03   2.885761458970000E-03   2.958820059970000E-03
   3.033728148270000E-03   3.110532543840000E-03   3.189281251950000E-03
   3.270023493090000E-03   3.352809733800000E-03   3.437691718170000E-03
   3.524722500210000E-03   3.613956476980000E-03   3.705449422630000E-03
   3.799258523230000E-03   3.895442412510000E-03   3.994061208550000E-03
   4.095176551290000E-03   4.198851641120000E-03   4.305151278340000E-03
   4.414141903690000E-03   4.525891639860000E-03   4.640470334070000E-03
   4.757949601730000E-03   4.878402871210000E-03   5.001905429730000E-03
   5.128534470400000E-03   5.258369140490000E-03   5.391490590910000E-03
   5.527982026890000E-03   5.667928760020000E-03   5.811418261570000E-03
   5.958540217150000E-03   6.109386582760000E-03   6.264051642300000E-03
   6.422632066460000E-03   6.585226973170000E-03   6.751937989540000E-03
   6.922869315380000E-03   7.098127788340000E-03   7.277822950660000E-03
   7.462067117680000E-03   7.650975447990000E-03   7.844666015450001E-03
   8.043259882970000E-03   8.246881178180000E-03   8.455657171020000E-03
   8.669718353290000E-03   8.889198520180001E-03   9.114234853950000E-03
   9.344968009630000E-03   9.581542202950001E-03   9.824105300490001E-03
   1.007280891210000E-02   1.032780848560000E-02   1.058926340400000E-02
   1.085733708520000E-02   1.113219708400000E-02   1.141401519670000E-02
   1.170296756890000E-02   1.199923480530000E-02   1.230300208250000E-02
   1.261445926490000E-02   1.293380102340000E-02   1.326122695700000E-02
   1.359694171760000E-02   1.394115513780000E-02   1.429408236220000E-02
   1.465594398190000E-02   1.502696617200000E-02   1.540738083360000E-02
   1.579742573830000E-02   1.619734467670000E-02   1.660738761120000E-02
   1.702781083210000E-02   1.745887711740000E-02   1.790085589770000E-02
   1.835402342410000E-02   1.881866294110000E-02   1.929506486340000E-02
   1.978352695780000E-02   2.028435452900000E-02   2.079786061050000E-02
   2.132436616040000E-02   2.186420026170000E-02   2.241770032840000E-02
   2.298521231590000E-02   2.356709093790000E-02   2.416369988720000E-02
   2.477541206410000E-02   2.540260980840000E-02   2.604568513920000E-02
   2.670503999950000E-02   2.738108650750000E-02   2.807424721440000E-02
   2.878495536810000E-02   2.951365518440000E-02   3.026080212440000E-02
   3.102686317920000E-02   3.181231716200000E-02   3.261765500700000E-02
   3.344338007650000E-02   3.429000847580000E-02   3.515806937500000E-02
   3.604810534050000E-02   3.696067267370000E-02   3.789634175900000E-02
   3.885569741990000E-02   3.983933928500000E-02   4.084788216250000E-02
   4.188195642450000E-02   4.294220840110000E-02   4.402930078420000E-02
   4.514391304200000E-02   4.628674184350000E-02   4.745850149380000E-02
   4.865992438090000E-02   4.989176143310000E-02   5.115478258890000E-02
   5.244977727740000E-02   5.377755491250000E-02   5.513894539850000E-02
   5.653479964870000E-02   5.796599011750000E-02   5.943341134550000E-02
   6.093798051870000E-02   6.248063804200000E-02   6.406234812630000E-02
   6.568409939210000E-02   6.734690548659999E-02   6.905180571779999E-02
   7.079986570379999E-02   7.259217803909999E-02   7.442986297710000E-02
   7.631406913090000E-02   7.824597419050000E-02   8.022678565959999E-02
   8.225774160969999E-02   8.434011145450000E-02   8.647519674280001E-02
   8.866433197260000E-02   9.090888542460000E-02   9.321026001770000E-02
   9.556989418610000E-02   9.798926277770000E-02   1.004698779770000E-01
   1.030132902490000E-01   1.056210893090000E-01   1.082949051170000E-01
   1.110364088940000E-01   1.138473141690000E-01   1.167293778510000E-01
   1.196844013220000E-01   1.227142315680000E-01   1.258207623320000E-01
   1.290059352970000E-01   1.322717412990000E-01   1.356202215740000E-01
   1.390534690300000E-01   1.425736295600000E-01   1.461829033780000E-01
   1.498835463970000E-01   1.536778716410000E-01   1.575682506850000E-01
   1.615571151440000E-01   1.656469581870000E-01   1.698403361000000E-01
   1.741398698800000E-01   1.785482468760000E-01   1.830682224670000E-01
   1.877026217850000E-01   1.924543414800000E-01   1.973263515320000E-01
   2.023216971060000E-01   2.074435004550000E-01   2.126949628720000E-01
   2.180793666940000E-01   2.236000773480000E-01   2.292605454570000E-01
   2.350643089990000E-01   2.410149955140000E-01   2.471163243750000E-01
   2.533721091120000E-01   2.597862597940000E-01   2.663627854730000E-01
   2.731057966920000E-01   2.800195080540000E-01   2.871082408510000E-01
   2.943764257740000E-01   3.018286056730000E-01   3.094694384060000E-01
   3.173036997390000E-01   3.253362863430000E-01   3.335722188450000E-01
   3.420166449700000E-01   3.506748427610000E-01   3.595522238720000E-01
   3.686543369560000E-01   3.779868711300000E-01   3.875556595310000E-01
   3.973666829640000E-01   4.074260736370000E-01   4.177401189980000E-01
   4.283152656600000E-01   4.391581234350000E-01   4.502754694610000E-01
   4.616742524410000E-01   4.733615969860000E-01   4.853448080680000E-01
   4.976313755820000E-01   5.102289790330000E-01   5.231454923340000E-01
   5.363889887260000E-01   5.499677458260001E-01   5.638902507980000E-01
   5.781652056610000E-01   5.928015327270000E-01   6.078083801770000E-01
   6.231951277790000E-01   6.389713927510000E-01   6.551470357720000E-01
   6.717321671460000E-01   6.887371531190000E-01   7.061726223620000E-01
   7.240494726100000E-01   7.423788774760000E-01   7.611722934360000E-01
   7.804414669860000E-01   8.001984419870000E-01   8.204555671910000E-01
   8.412255039620000E-01   8.625212341840000E-01   8.843560683850000E-01
   9.067436540440000E-01   9.296979841330000E-01   9.532334058540000E-01
   9.773646296130000E-01   1.002106738210000E+00   1.027475196270000E+00
   1.053485859900000E+00   1.080154986620000E+00   1.107499245490000E+00
   1.135535727570000E+00   1.164281956580000E+00   1.193755899830000E+00
   1.223975979520000E+00   1.254961084160000E+00   1.286730580460000E+00
   1.319304325390000E+00   1.352702678590000E+00   1.386946515140000E+00
   1.422057238530000E+00   1.458056794120000E+00   1.494967682800000E+00
   1.532812975070000E+00   1.571616325480000E+00   1.611401987380000E+00
   1.652194828100000E+00   1.694020344510000E+00   1.736904678900000E+00
   1.780874635390000E+00   1.825957696620000E+00   1.872182040990000E+00
   1.919576560200000E+00   1.968170877380000E+00   2.017995365560000E+00
   2.069081166650000E+00   2.121460210960000E+00   2.175165237100000E+00
   2.230229812430000E+00   2.286688354140000E+00   2.344576150620000E+00
   2.403929383660000E+00   2.464785150940000E+00   2.527181489300000E+00
   2.591157398490000E+00   2.656752865540000E+00   2.724008889730000E+00
   2.792967508290000E+00   2.863671822580000E+00   2.936166025120000E+00
   3.010495427120000E+00   3.086706486900000E+00   3.164846838840000E+00
   3.244965323210000E+00   3.327112016670000E+00   3.411338263570000E+00
   3.497696708060000E+00   3.586241326990000E+00   3.677027463610000E+00
   3.770111862230000E+00   3.865552703610000E+00   3.963409641400000E+00
   4.063743839360000E+00   4.166618009640000E+00   4.272096451930000E+00
   4.380245093710000E+00   4.491131531380000E+00   4.604825072590000E+00
   4.721396779500000E+00   4.840919513220000E+00   4.963467979350000E+00
   5.089118774660000E+00   5.217950435010000E+00   5.350043484370000E+00
   5.485480485180000E+00   5.624346090000000E+00   5.766727094340000E+00
   5.912712490970000E+00   6.062393525510000E+00   6.215863753480000E+00
   6.373219098760000E+00   6.534557913580000E+00   6.699981039930000E+00
   6.869591872670000E+00   7.043496424080000E+00   7.221803390180000E+00
   7.404624218600000E+00   7.592073178340000E+00   7.784267431080000E+00
   7.981327104490000E+00   8.183375367289999E+00   8.390538506210000E+00
   8.602946004960000E+00   8.820730625150000E+00   9.044028489240000E+00
   9.272979165670000E+00   9.507725756070000E+00   9.748414984700000E+00
   9.995197290160000E+00   1.024822691940000E+01   1.050766202430000E+01
   1.077366476000000E+01   1.104640138710000E+01   1.132604237480000E+01
   1.161276250780000E+01   1.190674099550000E+01   1.220816158410000E+01
   1.251721267110000E+01   1.283408742370000E+01   1.315898389890000E+01
   1.349210516750000E+01   1.383365944110000E+01   1.418386020240000E+01
   1.454292633810000E+01   1.491108227630000E+01   1.528855812650000E+01
   1.567558982330000E+01   1.607241927420000E+01   1.647929451040000E+01
   1.689646984230000E+01   1.732420601800000E+01   1.776277038660000E+01
   1.821243706500000E+01   1.867348710950000E+01   1.914620869150000E+01
   1.963089727730000E+01   2.012785581310000E+01   2.063739491410000E+01
   2.115983305880000E+01   2.169549678820000E+01   2.224472090940000E+01
   2.280784870550000E+01   2.338523214960000E+01   2.397723212510000E+01
   2.458421865140000E+01   2.520657111480000E+01   2.584467850580000E+01
   2.649893966230000E+01   2.716976351880000E+01   2.785756936210000E+01
   2.856278709320000E+01   2.928585749620000E+01   3.002723251360000E+01
   3.078737552890000E+01   3.156676165620000E+01   3.236587803730000E+01
   3.318522414590000E+01   3.402531210000000E+01   3.488666698190000E+01
   3.576982716640000E+01   3.667534465750000E+01   3.760378543300000E+01
   3.855572979860000E+01   3.953177275050000E+01   4.053252434750000E+01
   4.155861009170000E+01   4.261067132020000E+01   4.368936560550000E+01
   4.479536716660000E+01   4.592936729060000E+01   4.709207476440000E+01
   4.828421631800000E+01   4.950653707870000E+01   5.075980103680000E+01
   5.204479152300000E+01   5.336231169830000E+01   5.471318505560000E+01
   5.609825593480000E+01   5.751839005020000E+01   5.897447503190000E+01
   6.046742098040000E+01   6.199816103550000E+01   6.356765195960000E+01
   6.517687473559999E+01   6.682683518010001E+01   6.851856457220001E+01
   7.025312029769999E+01   7.203158651050001E+01   7.385507480970000E+01
   7.572472493510000E+01   7.764170547870000E+01   7.960721461580000E+01
   8.162248085360000E+01   8.368876379920000E+01   8.580735494650000E+01
   8.797957848400000E+01   9.020679212220000E+01   9.249038794210000E+01
   9.483179326550000E+01   9.723247154670000E+01   9.969392328799999E+01
   1.022176869770000E+02   1.048053400480000E+02   1.074584998680000E+02
   1.101788247480000E+02   1.129680149810000E+02   1.158278139010000E+02
   1.187600089750000E+02   1.217664329210000E+02   1.248489648520000E+02
   1.280095314490000E+02   1.312501081720000E+02   1.345727204840000E+02
   1.379794451280000E+02   1.414724114160000E+02   1.450538025670000E+02
   1.487258570670000E+02   1.524908700690000E+02   1.563511948290000E+02
    </PP_R>
    <PP_RAB>
   5.137112288590000E-09   5.267158905330000E-09   5.400497667840000E-09
   5.537211917190000E-09   5.677387104240000E-09   5.821110843050000E-09
   5.968472965630000E-09   6.119565578100000E-09   6.274483118270000E-09
   6.433322414630000E-09   6.596182746930000E-09   6.763165908170000E-09
   6.934376268260000E-09   7.109920839260000E-09   7.289909342220000E-09
   7.474454275830000E-09   7.663670986679999E-09   7.857677741370000E-09
   8.056595800430001E-09   8.260549494140000E-09   8.469666300180000E-09
   8.684076923370000E-09   8.903915377330000E-09   9.129319068239999E-09
   9.360428880760001E-09   9.597389266040001E-09   9.840348332029999E-09
   1.008945793610000E-08   1.034487377970000E-08   1.060675550630000E-08
   1.087526680030000E-08   1.115057549010000E-08   1.143285365250000E-08
   1.172227772070000E-08   1.201902859400000E-08   1.232329175140000E-08
   1.263525736740000E-08   1.295512043050000E-08   1.328308086560000E-08
   1.361934365870000E-08   1.396411898480000E-08   1.431762234000000E-08
   1.468007467510000E-08   1.505170253480000E-08   1.543273819860000E-08
   1.582341982610000E-08   1.622399160610000E-08   1.663470390900000E-08
   1.705581344340000E-08   1.748758341630000E-08   1.793028369820000E-08
   1.838419099100000E-08   1.884958900170000E-08   1.932676861910000E-08
   1.981602809610000E-08   2.031767323560000E-08   2.083201758240000E-08
   2.135938261820000E-08   2.190009796360000E-08   2.245450158300000E-08
   2.302293999690000E-08   2.360576849770000E-08   2.420335137230000E-08
   2.481606212940000E-08   2.544428373320000E-08   2.608840884250000E-08
   2.674884005670000E-08   2.742599016660000E-08   2.812028241320000E-08
   2.883215075160000E-08   2.956204012290000E-08   3.031040673150000E-08
   3.107771833110000E-08   3.186445451630000E-08   3.267110702280000E-08
   3.349818003470000E-08   3.434619049970000E-08   3.521566845170000E-08
   3.610715734290000E-08   3.702121438290000E-08   3.795841088690000E-08
   3.891933263340000E-08   3.990458022980000E-08   4.091476948780000E-08
   4.195053180860000E-08   4.301251457740000E-08   4.410138156800000E-08
   4.521781335770000E-08   4.636250775270000E-08   4.753618022420000E-08
   4.873956435590000E-08   4.997341230190000E-08   5.123849525730000E-08
   5.253560394020000E-08   5.386554908580000E-08   5.522916195300000E-08
   5.662729484430000E-08   5.806082163830000E-08   5.953063833580000E-08
   6.103766362020000E-08   6.258283943120000E-08   6.416713155420001E-08
   6.579153022320000E-08   6.745705074030000E-08   6.916473411000000E-08
   7.091564769000000E-08   7.271088585840000E-08   7.455157069730000E-08
   7.643885269480000E-08   7.837391146349999E-08   8.035795647820000E-08
   8.239222783149999E-08   8.447799700940000E-08   8.661656768530000E-08
   8.880927653570000E-08   9.105749407490000E-08   9.336262551200000E-08
   9.572611162940001E-08   9.814942968260000E-08   1.006340943240000E-07
   1.031816585510000E-07   1.057937146730000E-07   1.084718953110000E-07
   1.112178744140000E-07   1.140333683090000E-07   1.169201367720000E-07
   1.198799841260000E-07   1.229147603730000E-07   1.260263623460000E-07
   1.292167348980000E-07   1.324878721160000E-07   1.358418185660000E-07
   1.392806705760000E-07   1.428065775380000E-07   1.464217432600000E-07
   1.501284273380000E-07   1.539289465700000E-07   1.578256764050000E-07
   1.618210524250000E-07   1.659175718700000E-07   1.701177951990000E-07
   1.744243476880000E-07   1.788399210720000E-07   1.833672752290000E-07
   1.880092399010000E-07   1.927687164690000E-07   1.976486797600000E-07
   2.026521799100000E-07   2.077823442690000E-07   2.130423793570000E-07
   2.184355728670000E-07   2.239652957210000E-07   2.296350041750000E-07
   2.354482419830000E-07   2.414086426060000E-07   2.475199314890000E-07
   2.537859283870000E-07   2.602105497510000E-07   2.667978111800000E-07
   2.735518299250000E-07   2.804768274700000E-07   2.875771321610000E-07
   2.948571819220000E-07   3.023215270200000E-07   3.099748329140000E-07
   3.178218831680000E-07   3.258675824460000E-07   3.341169595710000E-07
   3.425751706720000E-07   3.512475024060000E-07   3.601393752630000E-07
   3.692563469530000E-07   3.786041158810000E-07   3.881885247060000E-07
   3.980155639950000E-07   4.080913759680000E-07   4.184222583350000E-07
   4.290146682350000E-07   4.398752262680000E-07   4.510107206370000E-07
   4.624281113880000E-07   4.741345347610000E-07   4.861373076540000E-07
   4.984439321880000E-07   5.110621004060000E-07   5.239996990740000E-07
   5.372648146110000E-07   5.508657381460000E-07   5.648109707000000E-07
   5.791092284970000E-07   5.937694484130000E-07   6.088007935630001E-07
   6.242126590280000E-07   6.400146777240000E-07   6.562167264280000E-07
   6.728289319470001E-07   6.898616774520000E-07   7.073256089620000E-07
   7.252316420030000E-07   7.435909684280001E-07   7.624150634150000E-07
   7.817156926350000E-07   8.015049196100000E-07   8.217951132510000E-07
   8.425989555890000E-07   8.639294497030000E-07   8.857999278470000E-07
   9.082240597810000E-07   9.312158613180000E-07   9.547897030810000E-07
   9.789603194899999E-07   1.003742817970000E-06   1.029152688380000E-06
   1.055205812720000E-06   1.081918475050000E-06   1.109307371640000E-06
   1.137389621460000E-06   1.166182776810000E-06   1.195704834350000E-06
   1.225974246350000E-06   1.257009932150000E-06   1.288831290090000E-06
   1.321458209530000E-06   1.354911083370000E-06   1.389210820750000E-06
   1.424378860110000E-06   1.460437182630000E-06   1.497408325920000E-06
   1.535315398170000E-06   1.574182092520000E-06   1.614032701910000E-06
   1.654892134290000E-06   1.696785928130000E-06   1.739740268400000E-06
   1.783782002980000E-06   1.828938659370000E-06   1.875238461970000E-06
   1.922710349640000E-06   1.971383993880000E-06   2.021289817280000E-06
   2.072459012620000E-06   2.124923562310000E-06   2.178716258400000E-06
   2.233870723070000E-06   2.290421429660000E-06   2.348403724200000E-06
   2.407853847520000E-06   2.468808957870000E-06   2.531307154190000E-06
   2.595387499890000E-06   2.661090047250000E-06   2.728455862530000E-06
   2.797527051530000E-06   2.868346786010000E-06   2.940959330600000E-06
   3.015410070520000E-06   3.091745539880000E-06   3.170013450850000E-06
   3.250262723430000E-06   3.332543516010000E-06   3.416907256770000E-06
   3.503406675790000E-06   3.592095838040000E-06   3.683030177110000E-06
   3.776266529940000E-06   3.871863172280000E-06   3.969879855140000E-06
   4.070377842140000E-06   4.173419947790000E-06   4.279070576770000E-06
   4.387395764150000E-06   4.498463216710000E-06   4.612342355220000E-06
   4.729104357840000E-06   4.848822204630000E-06   4.971570723140000E-06
   5.097426635200000E-06   5.226468604830000E-06   5.358777287480000E-06
   5.494435380370000E-06   5.633527674240000E-06   5.776141106290000E-06
   5.922364814560000E-06   6.072290193640000E-06   6.226010951750000E-06
   6.383623169380000E-06   6.545225359290000E-06   6.710918528120000E-06
   6.880806239490000E-06   7.054994678750000E-06   7.233592719340000E-06
   7.416711990850000E-06   7.604466948800000E-06   7.796974946130001E-06
   7.994356306620000E-06   8.196734400040000E-06   8.404235719280000E-06
   8.616989959430000E-06   8.835130098810000E-06   9.058792482110000E-06
   9.288116905600001E-06   9.523246704510001E-06   9.764328842619999E-06
   1.001151400410000E-05   1.026495668780000E-05   1.052481530350000E-05
   1.079125227140000E-05   1.106443412320000E-05   1.134453160660000E-05
   1.163171979150000E-05   1.192617818000000E-05   1.222809081800000E-05
   1.253764641080000E-05   1.285503844080000E-05   1.318046528830000E-05
   1.351413035560000E-05   1.385624219440000E-05   1.420701463550000E-05
   1.456666692330000E-05   1.493542385210000E-05   1.531351590700000E-05
   1.570117940790000E-05   1.609865665690000E-05   1.650619609050000E-05
   1.692405243390000E-05   1.735248686100000E-05   1.779176715730000E-05
   1.824216788730000E-05   1.870397056600000E-05   1.917746383510000E-05
   1.966294364350000E-05   2.016071343170000E-05   2.067108432200000E-05
   2.119437531300000E-05   2.173091347850000E-05   2.228103417230000E-05
   2.284508123780000E-05   2.342340722270000E-05   2.401637359970000E-05
   2.462435099190000E-05   2.524771940510000E-05   2.588686846480000E-05
   2.654219766000000E-05   2.721411659270000E-05   2.790304523420000E-05
   2.860941418730000E-05   2.933366495560000E-05   3.007625021940000E-05
   3.083763411860000E-05   3.161829254300000E-05   3.241871342950000E-05
   3.323939706730000E-05   3.408085641020000E-05   3.494361739780000E-05