<UPF version="2.0.1">
  <PP_INFO>
    Generated by new atomic code, or converted to UPF format
    Author: 
    Generation date: 
    Pseudopotential type: US
    Element: Nb
    Functional: SLA  PZ   NOGX NOGC
    Suggested minimum cutoff for wavefunctions:   0. Ry
    Suggested minimum cutoff for charge density:   0. Ry
    The Pseudo was generated with a Non-Relativistic Calculation
    L component and cutoff radius for Local Potential:  0   0.0000
    Valence configuration: 
    nl pn  l   occ       Rcut    Rcut US       E pseu
    4S  1  0  2.00      0.000      0.000     0.000000
    4P  2  1  6.00      0.000      0.000     0.000000
    4D  3  2  4.00      0.000      0.000     0.000000
    5S  1  0  1.00      0.000      0.000     0.000000
    5P  2  1  0.00      0.000      0.000     0.000000
    Generation configuration: not available.
  </PP_INFO>
    <!-- END OF HUMAN READABLE SECTION -->
  <PP_HEADER generated="Generated by new atomic code, or converted to UPF format" author="" date="" comment="" element="Nb" pseudo_type="US" relativistic="no" is_ultrasoft="true" is_paw="false" is_coulomb="false" has_so="false" has_wfc="false" has_gipaw="false" paw_as_gipaw="false" core_correction="true" functional="SLA  PZ   NOGX NOGC" z_valence="13.000000000000000" total_psenergy="-117.26460211100000" wfc_cutoff="0.0000000000000000" rho_cutoff="0.0000000000000000" l_max="2" l_max_rho="0" l_local="0" mesh_size="887" number_of_wfc="5" number_of_proj="6"/>
  <PP_MESH>
    <PP_R>
   0.000000000000000E+00   1.033434367800000E-06   2.084533853850000E-06
   3.153600418680000E-06   4.240941184440000E-06   5.346868523070000E-06
   6.471700146120000E-06   7.615759195920000E-06   8.779374338530000E-06
   9.962879858030000E-06   1.116661575270000E-05   1.239092783250000E-05
   1.363616781860000E-05   1.490269344450000E-05   1.619086855830000E-05
   1.750106322790000E-05   1.883365384690000E-05   2.018902324270000E-05
   2.156756078680000E-05   2.296966250630000E-05   2.439573119780000E-05
   2.584617654340000E-05   2.732141522800000E-05   2.882187105900000E-05
   3.034797508830000E-05   3.190016573620000E-05   3.347888891700000E-05
   3.508459816720000E-05   3.671775477620000E-05   3.837882791810000E-05
   4.006829478710000E-05   4.178664073450000E-05   4.353435940760000E-05
   4.531195289240000E-05   4.711993185690000E-05   4.895881569860000E-05
   5.082913269310000E-05   5.273142014650000E-05   5.466622454900000E-05
   5.663410173260000E-05   5.863561703020000E-05   6.067134543850000E-05
   6.274187178280000E-05   6.484779088530000E-05   6.698970773580000E-05
   6.916823766560000E-05   7.138400652420000E-05   7.363765085900000E-05
   7.592981809860000E-05   7.826116673810000E-05   8.063236652890000E-05
   8.304409867090000E-05   8.549705600799999E-05   8.799194322750000E-05
   9.052947706200000E-05   9.311038649599999E-05   9.573541297480000E-05
   9.840531061780000E-05   1.011208464350000E-04   1.038828005470000E-04
   1.066919664100000E-04   1.095491510430000E-04   1.124551752590000E-04
   1.154108739040000E-04   1.184170960920000E-04   1.214747054530000E-04
   1.245845803790000E-04   1.277476142760000E-04   1.309647158240000E-04
   1.342368092330000E-04   1.375648345120000E-04   1.409497477380000E-04
   1.443925213320000E-04   1.478941443360000E-04   1.514556226980000E-04
   1.550779795620000E-04   1.587622555620000E-04   1.625095091180000E-04
   1.663208167430000E-04   1.701972733540000E-04   1.741399925800000E-04
   1.781501070890000E-04   1.822287689090000E-04   1.863771497600000E-04
   1.905964413920000E-04   1.948878559270000E-04   1.992526262040000E-04
   2.036920061370000E-04   2.082072710740000E-04   2.127997181640000E-04
   2.174706667280000E-04   2.222214586380000E-04   2.270534587060000E-04
   2.319680550720000E-04   2.369666596030000E-04   2.420507083030000E-04
   2.472216617200000E-04   2.524810053690000E-04   2.578302501580000E-04
   2.632709328200000E-04   2.688046163600000E-04   2.744328904970000E-04
   2.801573721260000E-04   2.859797057790000E-04   2.919015641000000E-04
   2.979246483240000E-04   3.040506887670000E-04   3.102814453220000E-04
   3.166187079650000E-04   3.230642972680000E-04   3.296200649250000E-04
   3.362878942800000E-04   3.430697008730000E-04   3.499674329840000E-04
   3.569830722000000E-04   3.641186339760000E-04   3.713761682230000E-04
   3.787577598890000E-04   3.862655295630000E-04   3.939016340810000E-04
   4.016682671490000E-04   4.095676599700000E-04   4.176020818870000E-04
   4.257738410330000E-04   4.340852849980000E-04   4.425388014970000E-04
   4.511368190640000E-04   4.598818077410000E-04   4.687762797940000E-04
   4.778227904350000E-04   4.870239385490000E-04   4.963823674490000E-04
   5.059007656310000E-04   5.155818675450000E-04   5.254284543850000E-04
   5.354433548860000E-04   5.456294461330000E-04   5.559896543950000E-04
   5.665269559580000E-04   5.772443779850000E-04   5.881449993840000E-04
   5.992319516940000E-04   6.105084199790000E-04   6.219776437530000E-04
   6.336429178999999E-04   6.455075936290000E-04   6.575750794309999E-04
   6.698488420610000E-04   6.823324075330000E-04   6.950293621350000E-04
   7.079433534570000E-04   7.210780914360000E-04   7.344373494310000E-04
   7.480249652960001E-04   7.618448424920000E-04   7.759009512010000E-04
   7.901973294720000E-04   8.047380843770000E-04   8.195273931940001E-04
   8.345695046050000E-04   8.498687399170000E-04   8.654294943060000E-04
   8.812562380740000E-04   8.973535179380000E-04   9.137259583360000E-04
   9.303782627540000E-04   9.473152150750000E-04   9.645416809580000E-04
   9.820626092340000E-04   9.998830333270000E-04   1.018008072700000E-03
   1.036442934320000E-03   1.055192914180000E-03   1.074263398770000E-03
   1.093659866690000E-03   1.113387890150000E-03   1.133453136640000E-03
   1.153861370520000E-03   1.174618454670000E-03   1.195730352210000E-03
   1.217203128170000E-03   1.239042951270000E-03   1.261256095660000E-03
   1.283848942760000E-03   1.306827983040000E-03   1.330199817960000E-03
   1.353971161770000E-03   1.378148843520000E-03   1.402739809010000E-03
   1.427751122730000E-03   1.453189969950000E-03   1.479063658760000E-03
   1.505379622180000E-03   1.532145420260000E-03   1.559368742300000E-03
   1.587057409040000E-03   1.615219374900000E-03   1.643862730260000E-03
   1.672995703800000E-03   1.702626664870000E-03   1.732764125870000E-03
   1.763416744700000E-03   1.794593327270000E-03   1.826302830010000E-03
   1.858554362440000E-03   1.891357189810000E-03   1.924720735730000E-03
   1.958654584910000E-03   1.993168485890000E-03   2.028272353830000E-03
   2.063976273400000E-03   2.100290501650000E-03   2.137225470950000E-03
   2.174791792000000E-03   2.213000256880000E-03   2.251861842150000E-03
   2.291387711980000E-03   2.331589221390000E-03   2.372477919500000E-03
   2.414065552840000E-03   2.456364068730000E-03   2.499385618720000E-03
   2.543142562060000E-03   2.587647469280000E-03   2.632913125780000E-03
   2.678952535510000E-03   2.725778924690000E-03   2.773405745640000E-03
   2.821846680620000E-03   2.871115645790000E-03   2.921226795160000E-03
   2.972194524680000E-03   3.024033476410000E-03   3.076758542680000E-03
   3.130384870370000E-03   3.184927865290000E-03   3.240403196580000E-03
   3.296826801250000E-03   3.354214888690000E-03   3.412583945390000E-03
   3.471950739650000E-03   3.532332326410000E-03   3.593746052130000E-03
   3.656209559780000E-03   3.719740793920000E-03   3.784358005840000E-03
   3.850079758810000E-03   3.916924933430000E-03   3.984912733020000E-03
   4.054062689160000E-03   4.124394667300000E-03   4.195928872440000E-03
   4.268685854990000E-03   4.342686516610000E-03   4.417952116270000E-03
   4.494504276310000E-03   4.572364988690000E-03   4.651556621290000E-03
   4.732101924320000E-03   4.814024036900000E-03   4.897346493660000E-03
   4.982093231530000E-03   5.068288596620000E-03   5.155957351170000E-03
   5.245124680730000E-03   5.335816201350000E-03   5.428057966940000E-03
   5.521876476790000E-03   5.617298683120000E-03   5.714351998900000E-03
   5.813064305660000E-03   5.913463961540000E-03   6.015579809420000E-03
   6.119441185200000E-03   6.225077926260000E-03   6.332520379970000E-03
   6.441799412480000E-03   6.552946417550000E-03   6.665993325540000E-03
   6.780972612660000E-03   6.897917310220000E-03   7.016861014180000E-03
   7.137837894760000E-03   7.260882706270000E-03   7.386030797120000E-03
   7.513318119920000E-03   7.642781241860000E-03   7.774457355190000E-03
   7.908384287900000E-03   8.044600514620000E-03   8.183145167640000E-03
   8.324058048139999E-03   8.467379637670001E-03   8.613151109750000E-03
   8.761414341709999E-03   8.912211926699999E-03   9.065587185950000E-03
   9.221584181210000E-03   9.380247727390000E-03   9.541623405450001E-03
   9.705757575520000E-03   9.872697390150001E-03   1.004249080790000E-02
   1.021518660720000E-02   1.039083440020000E-02   1.056948464700000E-02
   1.075118867050000E-02   1.093599867070000E-02   1.112396773990000E-02
   1.131514987810000E-02   1.150960000800000E-02   1.170737399160000E-02
   1.190852864530000E-02   1.211312175720000E-02   1.232121210280000E-02
   1.253285946240000E-02   1.274812463820000E-02   1.296706947180000E-02
   1.318975686180000E-02   1.341625078190000E-02   1.364661629950000E-02
   1.388091959410000E-02   1.411922797650000E-02   1.436160990820000E-02
   1.460813502070000E-02   1.485887413590000E-02   1.511389928640000E-02
   1.537328373590000E-02   1.563710200060000E-02   1.590542987030000E-02
   1.617834443040000E-02   1.645592408410000E-02   1.673824857460000E-02
   1.702539900820000E-02   1.731745787780000E-02   1.761450908610000E-02
   1.791663797020000E-02   1.822393132600000E-02   1.853647743280000E-02
   1.885436607910000E-02   1.917768858820000E-02   1.950653784440000E-02
   1.984100831960000E-02   2.018119610080000E-02   2.052719891740000E-02
   2.087911616920000E-02   2.123704895530000E-02   2.160110010280000E-02
   2.197137419670000E-02   2.234797760940000E-02   2.273101853180000E-02
   2.312060700430000E-02   2.351685494800000E-02   2.391987619720000E-02
   2.432978653230000E-02   2.474670371240000E-02   2.517074750990000E-02
   2.560203974430000E-02   2.604070431760000E-02   2.648686724950000E-02
   2.694065671410000E-02   2.740220307620000E-02   2.787163892930000E-02
   2.834909913310000E-02   2.883472085280000E-02   2.932864359800000E-02
   2.983100926320000E-02   3.034196216840000E-02   3.086164910040000E-02
   3.139021935520000E-02   3.192782478080000E-02   3.247461982090000E-02
   3.303076155910000E-02   3.359640976410000E-02   3.417172693580000E-02
   3.475687835160000E-02   3.535203211420000E-02   3.595735919980000E-02
   3.657303350710000E-02   3.719923190750000E-02   3.783613429550000E-02
   3.848392364110000E-02   3.914278604140000E-02   3.981291077490000E-02
   4.049449035560000E-02   4.118772058790000E-02   4.189280062360000E-02
   4.260993301840000E-02   4.333932379080000E-02   4.408118248040000E-02
   4.483572220900000E-02   4.560315974110000E-02   4.638371554690000E-02
   4.717761386480000E-02   4.798508276650000E-02   4.880635422210000E-02
   4.964166416710000E-02   5.049125256980000E-02   5.135536350060000E-02
   5.223424520170000E-02   5.312815015900000E-02   5.403733517400000E-02
   5.496206143790000E-02   5.590259460680000E-02   5.685920487750000E-02
   5.783216706580000E-02   5.882176068480000E-02   5.982827002560000E-02
   6.085198423890000E-02   6.189319741800000E-02   6.295220868320001E-02
   6.402932226810000E-02   6.512484760640000E-02   6.623909942150000E-02
   6.737239781630000E-02   6.852506836550000E-02   6.969744220910000E-02
   7.088985614730001E-02   7.210265273770000E-02   7.333618039320000E-02
   7.459079348240000E-02   7.586685243140000E-02   7.716472382730000E-02
   7.848478052330000E-02   7.982740174630000E-02   8.119297320530000E-02
   8.258188720260000E-02   8.399454274630000E-02   8.543134566500001E-02
   8.689270872440000E-02   8.837905174580001E-02   8.989080172670000E-02
   9.142839296380000E-02   9.299226717719999E-02   9.458287363770000E-02
   9.620066929569999E-02   9.784611891269999E-02   9.951969519459999E-02
   1.012218789270000E-01   1.029531591150000E-01   1.047140331220000E-01
   1.065050068120000E-01   1.083265946980000E-01   1.101793200870000E-01
   1.120637152300000E-01   1.139803214790000E-01   1.159296894360000E-01
   1.179123791190000E-01   1.199289601140000E-01   1.219800117470000E-01
   1.240661232450000E-01   1.261878939080000E-01   1.283459332790000E-01
   1.305408613220000E-01   1.327733085960000E-01   1.350439164400000E-01
   1.373533371570000E-01   1.397022341980000E-01   1.420912823560000E-01
   1.445211679570000E-01   1.469925890620000E-01   1.495062556620000E-01
   1.520628898840000E-01   1.546632262000000E-01   1.573080116360000E-01
   1.599980059880000E-01   1.627339820390000E-01   1.655167257830000E-01
   1.683470366470000E-01   1.712257277260000E-01   1.741536260100000E-01
   1.771315726300000E-01   1.801604230920000E-01   1.832410475240000E-01
   1.863743309320000E-01   1.895611734480000E-01   1.928024905880000E-01
   1.960992135210000E-01   1.994522893320000E-01   2.028626812940000E-01
   2.063313691470000E-01   2.098593493780000E-01   2.134476355080000E-01
   2.170972583810000E-01   2.208092664630000E-01   2.245847261430000E-01
   2.284247220380000E-01   2.323303573030000E-01   2.363027539520000E-01
   2.403430531780000E-01   2.444524156800000E-01   2.486320219990000E-01
   2.528830728550000E-01   2.572067894930000E-01   2.616044140330000E-01
   2.660772098260000E-01   2.706264618220000E-01   2.752534769310000E-01
   2.799595844060000E-01   2.847461362200000E-01   2.896145074580000E-01
   2.945660967070000E-01   2.996023264640000E-01   3.047246435410000E-01
   3.099345194780000E-01   3.152334509740000E-01   3.206229603090000E-01
   3.261045957840000E-01   3.316799321680000E-01   3.373505711450000E-01
   3.431181417820000E-01   3.489843009900000E-01   3.549507340030000E-01
   3.610191548610000E-01   3.671913069040000E-01   3.734689632730000E-01
   3.798539274160000E-01   3.863480336110000E-01   3.929531474870000E-01
   3.996711665670000E-01   4.065040208070000E-01   4.134536731550000E-01
   4.205221201100000E-01   4.277113923010000E-01   4.350235550670000E-01
   4.424607090510000E-01   4.500249908020000E-01   4.577185733930000E-01
   4.655436670420000E-01   4.735025197450000E-01   4.815974179280000E-01
   4.898306870980000E-01   4.982046925140000E-01   5.067218398650000E-01
   5.153845759640000E-01   5.241953894469999E-01   5.331568114900000E-01
   5.422714165360000E-01   5.515418230350000E-01   5.609706941950000E-01
   5.705607387480000E-01   5.803147117290000E-01   5.902354152650000E-01
   6.003256993830000E-01   6.105884628250000E-01   6.210266538860000E-01
   6.316432712559999E-01   6.424413648820000E-01   6.534240368490000E-01
   6.645944422660000E-01   6.759557901740000E-01   6.875113444680000E-01
   6.992644248360000E-01   7.112184077100000E-01   7.233767272380000E-01
   7.357428762710000E-01   7.483204073620000E-01   7.611129337940000E-01
   7.741241306120000E-01   7.873577356810000E-01   8.008175507600001E-01
   8.145074425930000E-01   8.284313440210000E-01   8.425932551110000E-01
   8.569972443070000E-01   8.716474495960000E-01   8.865480796980000E-01
   9.017034152760000E-01   9.171178101650000E-01   9.327956926220000E-01
   9.487415666000000E-01   9.649600130390000E-01   9.814556911850000E-01
   9.982333399270000E-01   1.015297779160000E+00   1.032653911160000E+00
   1.050306722020000E+00   1.068261283050000E+00   1.086522752240000E+00
   1.105096375760000E+00   1.123987489450000E+00   1.143201520360000E+00
   1.162743988320000E+00   1.182620507490000E+00   1.202836788020000E+00
   1.223398637650000E+00   1.244311963400000E+00   1.265582773270000E+00
   1.287217177950000E+00   1.309221392590000E+00   1.331601738560000E+00
   1.354364645310000E+00   1.377516652190000E+00   1.401064410310000E+00
   1.425014684500000E+00   1.449374355190000E+00   1.474150420460000E+00
   1.499349997990000E+00   1.524980327130000E+00   1.551048770970000E+00
   1.577562818480000E+00   1.604530086630000E+00   1.631958322590000E+00
   1.659855405970000E+00   1.688229351050000E+00   1.717088309120000E+00
   1.746440570810000E+00   1.776294568450000E+00   1.806658878510000E+00
   1.837542224070000E+00   1.868953477330000E+00   1.900901662120000E+00
   1.933395956550000E+00   1.966445695580000E+00   2.000060373790000E+00
   2.034249648000000E+00   2.069023340140000E+00   2.104391440020000E+00
   2.140364108200000E+00   2.176951678940000E+00   2.214164663150000E+00
   2.252013751380000E+00   2.290509816950000E+00   2.329663919040000E+00
   2.369487305860000E+00   2.409991417900000E+00   2.451187891210000E+00
   2.493088560730000E+00   2.535705463720000E+00   2.579050843190000E+00
   2.623137151430000E+00   2.667977053590000E+00   2.713583431290000E+00
   2.759969386360000E+00   2.807148244610000E+00   2.855133559590000E+00
   2.903939116560000E+00   2.953578936420000E+00   3.004067279710000E+00
   3.055418650780000E+00   3.107647801860000E+00   3.160769737400000E+00
   3.214799718280000E+00   3.269753266280000E+00   3.325646168490000E+00
   3.382494481860000E+00   3.440314537800000E+00   3.499122946910000E+00
   3.558936603700000E+00   3.619772691470000E+00   3.681648687260000E+00
   3.744582366850000E+00   3.808591809850000E+00   3.873695404960000E+00
   3.939911855160000E+00   4.007260183160000E+00   4.075759736840000E+00
   4.145430194790000E+00   4.216291571980000E+00   4.288364225530000E+00
   4.361668860500000E+00   4.436226535900000E+00   4.512058670710000E+00
   4.589187050030000E+00   4.667633831350000E+00   4.747421550920000E+00
   4.828573130200000E+00   4.911111882470000E+00   4.995061519520000E+00
   5.080446158460000E+00   5.167290328630000E+00   5.255618978690000E+00
   5.345457483760000E+00   5.436831652680000E+00   5.529767735500000E+00
   5.624292430960000E+00   5.720432894160000E+00   5.818216744410000E+00
   5.917672073100000E+00   6.018827451840000E+00   6.121711940610000E+00
   6.226355096130000E+00   6.332786980340000E+00   6.441038169080000E+00
   6.551139760820000E+00   6.663123385600000E+00   6.777021214170000E+00
   6.892865967160000E+00   7.010690924520000E+00   7.130529935100000E+00
   7.252417426310000E+00   7.376388414070000E+00   7.502478512860000E+00
   7.630723945910000E+00   7.761161555660000E+00   7.893828814300000E+00
   8.028763834579999E+00   8.166005380720000E+00   8.305592879550000E+00
   8.447566431860000E+00   8.591966823910001E+00   8.738835539129999E+00
   8.888214770070000E+00   9.040147430490000E+00   9.194677167689999E+00
   9.351848375090000E+00   9.511706204930000E+00   9.674296581269999E+00
   9.839666213179999E+00   1.000786260820000E+01   1.017893408580000E+01
   1.035292979150000E+01   1.052989971110000E+01   1.070989468440000E+01
   1.089296642060000E+01   1.107916751260000E+01   1.126855145240000E+01
   1.146117264640000E+01   1.165708643090000E+01   1.185634908800000E+01
   1.205901786230000E+01   1.226515097630000E+01   1.247480764830000E+01
   1.268804810850000E+01   1.290493361670000E+01   1.312552648000000E+01
   1.334989007050000E+01   1.357808884340000E+01   1.381018835580000E+01
   1.404625528550000E+01   1.428635744990000E+01   1.453056382570000E+01
   1.477894456870000E+01   1.503157103380000E+01   1.528851579580000E+01
   1.554985266990000E+01   1.581565673320000E+01   1.608600434590000E+01
   1.636097317380000E+01   1.664064221000000E+01   1.692509179810000E+01
   1.721440365500000E+01   1.750866089420000E+01   1.780794805030000E+01
   1.811235110270000E+01   1.842195750040000E+01   1.873685618730000E+01
   1.905713762790000E+01   1.938289383270000E+01   1.971421838510000E+01
   2.005120646840000E+01   2.039395489270000E+01   2.074256212290000E+01
   2.109712830730000E+01   2.145775530570000E+01   2.182454671930000E+01
   2.219760792030000E+01   2.257704608190000E+01   2.296297020920000E+01
   2.335549117100000E+01   2.375472173070000E+01   2.416077657970000E+01
   2.457377236970000E+01   2.499382774630000E+01   2.542106338330000E+01
   2.585560201730000E+01   2.629756848280000E+01   2.674708974820000E+01
   2.720429495230000E+01   2.766931544120000E+01   2.814228480650000E+01
   2.862333892290000E+01   2.911261598810000E+01   2.961025656190000E+01
   3.011640360680000E+01   3.063120252900000E+01   3.115480122040000E+01
   3.168735010060000E+01   3.222900216070000E+01   3.277991300690000E+01
   3.334024090500000E+01   3.391014682670000E+01   3.448979449460000E+01
   3.507935043050000E+01   3.567898400240000E+01   3.628886747320000E+01
   3.690917605090000E+01   3.754008793800000E+01   3.818178438330000E+01
   3.883444973370000E+01   3.949827148740000E+01   4.017344034760000E+01
   4.086015027720000E+01   4.155859855470000E+01   4.226898583060000E+01
   4.299151618570000E+01   4.372639718880000E+01   4.447383995700000E+01
   4.523405921620000E+01   4.600727336270000E+01   4.679370452590000E+01
   4.759357863220000E+01   4.840712547010000E+01   4.923457875580000E+01
   5.007617620070000E+01   5.093215957930000E+01   5.180277479910000E+01
   5.268827197110000E+01   5.358890548140000E+01   5.450493406460000E+01
   5.543662087810000E+01   5.638423357730000E+01   5.734804439310000E+01
   5.832833020980000E+01   5.932537264430000E+01   6.033945812780000E+01
   6.137087798740000E+01   6.241992853000000E+01   6.348691112750000E+01
   6.457213230350000E+01   6.567590382090000E+01   6.679854277200000E+01
   6.794037166920000E+01   6.910171853780000E+01   7.028291701030000E+01
   7.148430642220001E+01   7.270623190950000E+01   7.394904450759999E+01
   7.521310125260000E+01   7.649876528359999E+01   7.780640594680000E+01
   7.913639890220000E+01   8.048912623100000E+01   8.186497654570000E+01
   8.326434510129999E+01   8.468763390940001E+01   8.613525185330001E+01
   8.760761480559999E+01   8.910514574779999E+01   9.062827489140000E+01
   9.217743980210000E+01   9.375308552490000E+01   9.535566471230000E+01
   9.698563775430000E+01   9.864347291070000E+01   1.003296464450000E+02
   1.020446427630000E+02   1.037889545500000E+02   1.055630829120000E+02
   1.073675375230000E+02   1.092028367660000E+02   1.110695078890000E+02
   1.129680871500000E+02   1.148991199740000E+02   1.168631611080000E+02
   1.188607747850000E+02   1.208925348800000E+02   1.229590250780000E+02
   1.250608390410000E+02   1.271985805820000E+02   1.293728638300000E+02
   1.315843134160000E+02   1.338335646470000E+02   1.361212636880000E+02
   1.384480677510000E+02   1.408146452830000E+02   1.432216761550000E+02
   1.456698518600000E+02   1.481598757120000E+02   1.506924630470000E+02
   1.532683414280000E+02   1.558882508540000E+02   1.585529439760000E+02
   1.612631863080000E+02   1.640197564510000E+02   1.668234463120000E+02
   1.696750613400000E+02   1.725754207460000E+02   1.755253577480000E+02
   1.785257198070000E+02   1.815773688670000E+02   1.846811816100000E+02
   1.878380496990000E+02   1.910488800430000E+02   1.943145950500000E+02
   1.976361328980000E+02   2.010144478000000E+02
    </PP_R>
    <PP_RAB>
   1.024701189200000E-06   1.042217025940000E-06   1.060032271470000E-06
   1.078152043750000E-06   1.096581548250000E-06   1.115326079420000E-06
   1.134391022180000E-06   1.153781853530000E-06   1.173504144090000E-06
   1.193563559670000E-06   1.213965862970000E-06   1.234716915170000E-06
   1.255822677650000E-06   1.277289213680000E-06   1.299122690190000E-06
   1.321329379500000E-06   1.343915661180000E-06   1.366888023820000E-06
   1.390253066940000E-06   1.414017502860000E-06   1.438188158650000E-06
   1.462771978070000E-06   1.487776023570000E-06   1.513207478330000E-06
   1.539073648320000E-06   1.565381964390000E-06   1.592139984400000E-06
   1.619355395420000E-06   1.647036015910000E-06   1.675189797980000E-06
   1.703824829660000E-06   1.732949337240000E-06   1.762571687630000E-06
   1.792700390760000E-06   1.823344102020000E-06   1.854511624770000E-06
   1.886211912810000E-06   1.918454073040000E-06   1.951247367990000E-06
   1.984601218560000E-06   2.018525206660000E-06   2.053029077980000E-06
   2.088122744840000E-06   2.123816288950000E-06   2.160119964380000E-06
   2.197044200480000E-06   2.234599604860000E-06   2.272796966470000E-06
   2.311647258660000E-06   2.351161642380000E-06   2.391351469350000E-06
   2.432228285310000E-06   2.473803833400000E-06   2.516090057460000E-06
   2.559099105500000E-06   2.602843333200000E-06   2.647335307410000E-06
   2.692587809840000E-06   2.738613840630000E-06   2.785426622190000E-06
   2.833039602920000E-06   2.881466461100000E-06   2.930721108840000E-06
   2.980817696040000E-06   3.031770614490000E-06   3.083594501960000E-06
   3.136304246470000E-06   3.189914990490000E-06   3.244442135370000E-06
   3.299901345680000E-06   3.356308553800000E-06   3.413679964420000E-06
   3.472032059230000E-06   3.531381601670000E-06   3.591745641710000E-06
   3.653141520760000E-06   3.715586876690000E-06   3.779099648820000E-06
   3.843698083150000E-06   3.909400737570000E-06   3.976226487160000E-06
   4.044194529690000E-06   4.113324391040000E-06   4.183635930890000E-06
   4.255149348390000E-06   4.327885187960000E-06   4.401864345190000E-06
   4.477108072870000E-06   4.553637987060000E-06   4.631476073330000E-06
   4.710644693050000E-06   4.791166589840000E-06   4.873064896080000E-06
   4.956363139560000E-06   5.041085250270000E-06   5.127255567210000E-06
   5.214898845470000E-06   5.304040263250000E-06   5.394705429160000E-06
   5.486920389540000E-06   5.580711635980000E-06   5.676106112880000E-06
   5.773131225230000E-06   5.871814846470000E-06   5.972185326480000E-06
   6.074271499780000E-06   6.178102693730000E-06   6.283708737030000E-06
   6.391119968260000E-06   6.500367244590000E-06   6.611481950630000E-06
   6.724496007510000E-06   6.839441881960000E-06   6.956352595710000E-06
   7.075261734950000E-06   7.196203459980000E-06   7.319212515010000E-06
   7.444324238160000E-06   7.571574571610000E-06   7.701000071920000E-06
   7.832637920529999E-06   7.966525934450001E-06   8.102702577110000E-06
   8.241206969420001E-06   8.382078901020000E-06   8.525358841690000E-06
   8.671087952980000E-06   8.819308100049999E-06   8.970061863680000E-06
   9.123392552499999E-06   9.279344215449999E-06   9.437961654440000E-06
   9.599290437170000E-06   9.763376910289999E-06   9.930268212680000E-06
   1.010001228900000E-05   1.027265790330000E-05   1.044825465350000E-05
   1.062685298510000E-05   1.080850420590000E-05   1.099326050080000E-05
   1.118117494670000E-05   1.137230152780000E-05   1.156669515110000E-05
   1.176441166210000E-05   1.196550786090000E-05   1.217004151850000E-05
   1.237807139360000E-05   1.258965724910000E-05   1.280485986950000E-05
   1.302374107830000E-05   1.324636375590000E-05   1.347279185750000E-05
   1.370309043150000E-05   1.393732563820000E-05   1.417556476890000E-05
   1.441787626500000E-05   1.466432973800000E-05   1.491499598910000E-05
   1.516994703000000E-05   1.542925610310000E-05   1.569299770290000E-05
   1.596124759720000E-05   1.623408284920000E-05   1.651158183900000E-05
   1.679382428670000E-05   1.708089127520000E-05   1.737286527320000E-05
   1.766983015930000E-05   1.797187124560000E-05   1.827907530270000E-05
   1.859153058450000E-05   1.890932685330000E-05   1.923255540570000E-05
   1.956130909920000E-05   1.989568237820000E-05   2.023577130180000E-05
   2.058167357080000E-05   2.093348855650000E-05   2.129131732830000E-05
   2.165526268360000E-05   2.202542917680000E-05   2.240192314950000E-05
   2.278485276140000E-05   2.317432802050000E-05   2.357046081560000E-05
   2.397336494800000E-05   2.438315616420000E-05   2.479995218940000E-05
   2.522387276090000E-05   2.565503966290000E-05   2.609357676150000E-05
   2.653961003970000E-05   2.699326763420000E-05   2.745467987230000E-05
   2.792397930860000E-05   2.840130076380000E-05   2.888678136310000E-05
   2.938056057570000E-05   2.988278025480000E-05   3.039358467850000E-05
   3.091312059090000E-05   3.144153724460000E-05   3.197898644350000E-05
   3.252562258650000E-05   3.308160271140000E-05   3.364708654060000E-05
   3.422223652670000E-05   3.480721789910000E-05   3.540219871170000E-05
   3.600734989090000E-05   3.662284528490000E-05   3.724886171370000E-05
   3.788557901970000E-05   3.853318011940000E-05   3.919185105610000E-05
   3.986178105320000E-05   4.054316256870000E-05   4.123619135020000E-05
   4.194106649160000E-05   4.265799048970000E-05   4.338716930310000E-05
   4.412881241060000E-05   4.488313287200000E-05   4.565034738890000E-05
   4.643067636730000E-05   4.722434398050000E-05   4.803157823390000E-05
   4.885261103030000E-05   4.968767823650000E-05   5.053701975110000E-05
   5.140087957360000E-05   5.227950587420000E-05   5.317315106510000E-05
   5.408207187340000E-05   5.500652941440000E-05   5.594678926690000E-05
   5.690312154930000E-05   5.787580099740000E-05   5.886510704320000E-05
   5.987132389520000E-05   6.089474061990000E-05   6.193565122530000E-05
   6.299435474480000E-05   6.407115532340001E-05   6.516636230500000E-05
   6.628029032159999E-05   6.741325938300000E-05   6.856559496930000E-05
   6.973762812420001E-05   7.092969555019999E-05   7.214213970520001E-05
   7.337530890090000E-05   7.462955740300000E-05   7.590524553280000E-05
   7.720273977070000E-05   7.852241286190000E-05   7.986464392290001E-05
   8.122981855050000E-05   8.261832893320000E-05   8.403057396310000E-05
   8.546695935080000E-05   8.692789774200000E-05   8.841380883620000E-05
   8.992511950670000E-05   9.146226392400000E-05   9.302568367980000E-05
   9.461582791440000E-05   9.623315344539999E-05   9.787812489930000E-05
   9.955121484440000E-05   1.012529039270000E-04   1.029836810100000E-04
   1.047440433110000E-04   1.065344965490000E-04   1.083555550870000E-04
   1.102077420790000E-04   1.120915896220000E-04   1.140076389100000E-04
   1.159564403870000E-04   1.179385539050000E-04   1.199545488870000E-04