<UPF version="2.0.1">
  <PP_INFO>
    Generated by new atomic code, or converted to UPF format
    Author: 
    Generation date: 
    Pseudopotential type: US
    Element: Ni
    Functional:  SLA  PZ   NOGX NOGC
    Suggested minimum cutoff for wavefunctions:   0. Ry
    Suggested minimum cutoff for charge density:   0. Ry
    The Pseudo was generated with a Non-Relativistic Calculation
    L component and cutoff radius for Local Potential:  0   0.0000
    Valence configuration: 
    nl pn  l   occ       Rcut    Rcut US       E pseu
    3S  1  0  2.00      0.000      0.000     0.000000
    3P  2  1  6.00      0.000      0.000     0.000000
    3D  3  2  8.00      0.000      0.000     0.000000
    4S  1  0  0.00      0.000      0.000     0.000000
    4P  2  1  0.00      0.000      0.000     0.000000
    Generation configuration: not available.
  </PP_INFO>
    <!-- END OF HUMAN READABLE SECTION -->
  <PP_HEADER generated="Generated by new atomic code, or converted to UPF format" author="" date="" comment="" element="Ni" pseudo_type="US" relativistic="no" is_ultrasoft="true" is_paw="false" is_coulomb="false" has_so="false" has_wfc="false" has_gipaw="false" paw_as_gipaw="false" core_correction="true" functional=" SLA  PZ   NOGX NOGC" z_valence="18.000000000000000" total_psenergy="-340.58876400600002" wfc_cutoff="0.0000000000000000" rho_cutoff="0.0000000000000000" l_max="2" l_max_rho="0" l_local="0" mesh_size="865" number_of_wfc="5" number_of_proj="6"/>
  <PP_MESH>
    <PP_R>
   0.000000000000000E+00   1.513243181430000E-06   3.052353143140000E-06
   4.617772041640000E-06   6.209949591490000E-06   7.829343194500001E-06
   9.476418071100000E-06   1.115164739400000E-05   1.285551242430000E-05
   1.458850264930000E-05   1.635111592360000E-05   1.814385861190000E-05
   1.996724573440000E-05   2.182180111510000E-05   2.370805753180000E-05
   2.562655686950000E-05   2.757785027580000E-05   2.956249831970000E-05
   3.158107115210000E-05   3.363414866990000E-05   3.572232068250000E-05
   3.784618708150000E-05   4.000635801240000E-05   4.220345405060000E-05
   4.443810637940000E-05   4.671095697090000E-05   4.902265877130000E-05
   5.137387588770000E-05   5.376528377940000E-05   5.619756945150000E-05
   5.867143165260000E-05   6.118758107550000E-05   6.374674056120001E-05
   6.634964530670000E-05   6.899704307610000E-05   7.168969441570000E-05
   7.442837287210000E-05   7.721386521450000E-05   8.004697166109999E-05
   8.292850610840000E-05   8.585929636559999E-05   8.884018439200000E-05
   9.187202653910000E-05   9.495569379629999E-05   9.809207204169999E-05
   1.012820622960000E-04   1.045265809820000E-04   1.078265601860000E-04
   1.111829479300000E-04   1.145967084380000E-04   1.180688224170000E-04
   1.216002873400000E-04   1.251921177260000E-04   1.288453454400000E-04
   1.325610199840000E-04   1.363402087980000E-04   1.401839975700000E-04
   1.440934905470000E-04   1.480698108510000E-04   1.521141008010000E-04
   1.562275222430000E-04   1.604112568840000E-04   1.646665066290000E-04
   1.689944939310000E-04   1.733964621350000E-04   1.778736758420000E-04
   1.824274212690000E-04   1.870590066190000E-04   1.917697624570000E-04
   1.965610420910000E-04   2.014342219630000E-04   2.063907020450000E-04
   2.114319062360000E-04   2.165592827780000E-04   2.217743046650000E-04
   2.270784700730000E-04   2.324733027870000E-04   2.379603526370000E-04
   2.435411959460000E-04   2.492174359820000E-04   2.549907034210000E-04
   2.608626568090000E-04   2.668349830450000E-04   2.729093978630000E-04
   2.790876463250000E-04   2.853715033210000E-04   2.917627740840000E-04
   2.982632947000000E-04   3.048749326440000E-04   3.115995873120000E-04
   3.184391905650000E-04   3.253957072920000E-04   3.324711359620000E-04
   3.396675092120000E-04   3.469868944190000E-04   3.544313943010000E-04
   3.620031475180000E-04   3.697043292900000E-04   3.775371520160000E-04
   3.855038659160000E-04   3.936067596700000E-04   4.018481610860000E-04
   4.102304377560000E-04   4.187559977480000E-04   4.274272902890000E-04
   4.362468064750000E-04   4.452170799810000E-04   4.543406877930000E-04
   4.636202509490000E-04   4.730584352850000E-04   4.826579522110000E-04
   4.924215594819999E-04   5.023520619920000E-04   5.124523125840000E-04
   5.227252128640000E-04   5.331737140369999E-04   5.438008177550000E-04
   5.546095769800000E-04   5.656030968600000E-04   5.767845356180000E-04
   5.881571054680000E-04   5.997240735270000E-04   6.114887627630000E-04
   6.234545529410000E-04   6.356248816040000E-04   6.480032450500000E-04
   6.605931993430000E-04   6.733983613340000E-04   6.864224096990000E-04
   6.996690859940000E-04   7.131421957330000E-04   7.268456094790000E-04
   7.407832639590000E-04   7.549591631910000E-04   7.693773796360000E-04
   7.840420553680000E-04   7.989574032670000E-04   8.141277082210000E-04
   8.295573283670000E-04   8.452506963350001E-04   8.612123205270000E-04
   8.774467864080000E-04   8.939587578270000E-04   9.107529783520000E-04
   9.278342726400000E-04   9.452075478140000E-04   9.628777948800000E-04
   9.808500901600000E-04   9.991295967450001E-04   1.017721565980000E-03
   1.036631338990000E-03   1.055864348170000E-03   1.075426118810000E-03
   1.095322270610000E-03   1.115558519360000E-03   1.136140678540000E-03
   1.157074661010000E-03   1.178366480700000E-03   1.200022254320000E-03
   1.222048203170000E-03   1.244450654880000E-03   1.267236045230000E-03
   1.290410920040000E-03   1.313981936980000E-03   1.337955867560000E-03
   1.362339599030000E-03   1.387140136360000E-03   1.412364604260000E-03
   1.438020249240000E-03   1.464114441660000E-03   1.490654677880000E-03
   1.517648582400000E-03   1.545103910050000E-03   1.573028548210000E-03
   1.601430519080000E-03   1.630317982010000E-03   1.659699235800000E-03
   1.689582721110000E-03   1.719977022910000E-03   1.750890872870000E-03
   1.782333151960000E-03   1.814312892930000E-03   1.846839282930000E-03
   1.879921666180000E-03   1.913569546600000E-03   1.947792590580000E-03
   1.982600629730000E-03   2.018003663730000E-03   2.054011863190000E-03
   2.090635572570000E-03   2.127885313140000E-03   2.165771786050000E-03
   2.204305875330000E-03   2.243498651090000E-03   2.283361372660000E-03
   2.323905491810000E-03   2.365142656100000E-03   2.407084712170000E-03
   2.449743709140000E-03   2.493131902130000E-03   2.537261755730000E-03
   2.582145947590000E-03   2.627797372070000E-03   2.674229143940000E-03
   2.721454602140000E-03   2.769487313650000E-03   2.818341077330000E-03
   2.868029927910000E-03   2.918568140050000E-03   2.969970232390000E-03
   3.022250971760000E-03   3.075425377410000E-03   3.129508725310000E-03
   3.184516552570000E-03   3.240464661860000E-03   3.297369126000000E-03
   3.355246292540000E-03   3.414112788460000E-03   3.473985524980000E-03
   3.534881702370000E-03   3.596818814930000E-03   3.659814655980000E-03
   3.723887323020000E-03   3.789055222880000E-03   3.855337077040000E-03
   3.922751926990000E-03   3.991319139720000E-03   4.061058413260000E-03
   4.131989782340000E-03   4.204133624190000E-03   4.277510664330000E-03
   4.352141982570000E-03   4.428049019040000E-03   4.505253580350000E-03
   4.583777845900000E-03   4.663644374170000E-03   4.744876109280000E-03
   4.827496387540000E-03   4.911528944150000E-03   4.996997920030000E-03
   5.083927868780000E-03   5.172343763680000E-03   5.262271004910000E-03
   5.353735426820000E-03   5.446763305380000E-03   5.541381365690000E-03
   5.637616789690000E-03   5.735497223950000E-03   5.835050787640000E-03
   5.936306080560000E-03   6.039292191400000E-03   6.144038706080000E-03
   6.250575716230000E-03   6.358933827900000E-03   6.469144170250000E-03
   6.581238404600000E-03   6.695248733440000E-03   6.811207909740000E-03
   6.929149246330000E-03   7.049106625460000E-03   7.171114508570000E-03
   7.295207946170000E-03   7.421422587900000E-03   7.549794692790000E-03
   7.680361139650000E-03   7.813159437690001E-03   7.948227737310000E-03
   8.085604841009999E-03   8.225330214570000E-03   8.367443998380001E-03
   8.511987019000000E-03   8.659000800820001E-03   8.808527578080001E-03
   8.960610306910000E-03   9.115292677729999E-03   9.272619127820000E-03
   9.432634853990001E-03   9.595385825690000E-03   9.760918798110000E-03
   9.929281325680000E-03   1.010052177570000E-02   1.027468934220000E-02
   1.045183406020000E-02   1.063200681990000E-02   1.081525938150000E-02
   1.100164438990000E-02   1.119121538990000E-02   1.138402684150000E-02
   1.158013413590000E-02   1.177959361070000E-02   1.198246256690000E-02
   1.218879928480000E-02   1.239866304090000E-02   1.261211412500000E-02
   1.282921385750000E-02   1.305002460700000E-02   1.327460980800000E-02
   1.350303397960000E-02   1.373536274370000E-02   1.397166284370000E-02
   1.421200216420000E-02   1.445644974990000E-02   1.470507582590000E-02
   1.495795181770000E-02   1.521515037170000E-02   1.547674537600000E-02
   1.574281198190000E-02   1.601342662500000E-02   1.628866704780000E-02
   1.656861232140000E-02   1.685334286890000E-02   1.714294048760000E-02
   1.743748837350000E-02   1.773707114450000E-02   1.804177486480000E-02
   1.835168706990000E-02   1.866689679170000E-02   1.898749458380000E-02
   1.931357254770000E-02   1.964522435930000E-02   1.998254529570000E-02
   2.032563226280000E-02   2.067458382280000E-02   2.102950022270000E-02
   2.139048342310000E-02   2.175763712760000E-02   2.213106681220000E-02
   2.251087975610000E-02   2.289718507230000E-02   2.329009373860000E-02
   2.368971863030000E-02   2.409617455180000E-02   2.450957827000000E-02
   2.493004854780000E-02   2.535770617820000E-02   2.579267401890000E-02
   2.623507702780000E-02   2.668504229880000E-02   2.714269909800000E-02
   2.760817890160000E-02   2.808161543270000E-02   2.856314470070000E-02
   2.905290503940000E-02   2.955103714760000E-02   3.005768412900000E-02
   3.057299153340000E-02   3.109710739880000E-02   3.163018229340000E-02
   3.217236935940000E-02   3.272382435660000E-02   3.328470570730000E-02
   3.385517454200000E-02   3.443539474520000E-02   3.502553300310000E-02
   3.562575885080000E-02   3.623624472180000E-02   3.685716599670000E-02
   3.748870105420000E-02   3.813103132220000E-02   3.878434132960000E-02
   3.944881875990000E-02   4.012465450450000E-02   4.081204271790000E-02
   4.151118087350000E-02   4.222226982010000E-02   4.294551383990000E-02
   4.368112070690000E-02   4.442930174660000E-02   4.519027189700000E-02
   4.596424977010000E-02   4.675145771470000E-02   4.755212188060000E-02
   4.836647228290000E-02   4.919474286890000E-02   5.003717158460000E-02
   5.089400044340000E-02   5.176547559580000E-02   5.265184739970000E-02
   5.355337049260000E-02   5.447030386450000E-02   5.540291093270000E-02
   5.635145961730000E-02   5.731622241770000E-02   5.829747649190000E-02
   5.929550373490000E-02   6.031059086080000E-02   6.134302948450000E-02
   6.239311620560000E-02   6.346115269360000E-02   6.454744577480000E-02
   6.565230752030000E-02   6.677605533519999E-02   6.791901205080000E-02
   6.908150601630000E-02   7.026387119370001E-02   7.146644725380000E-02
   7.268957967320000E-02   7.393361983440000E-02   7.519892512580000E-02
   7.648585904540001E-02   7.779479130430000E-02   7.912609793330000E-02
   8.048016139120000E-02   8.185737067420000E-02   8.325812142779999E-02
   8.468281606060001E-02   8.613186385990000E-02   8.760568110890000E-02
   8.910469120700000E-02   9.062932479060000E-02   9.218001985760001E-02
   9.375722189260000E-02   9.536138399510000E-02   9.699296701010000E-02
   9.865243965959999E-02   1.003402786780000E-01   1.020569689490000E-01
   1.038030036440000E-01   1.055788843660000E-01   1.073851212900000E-01
   1.092222333130000E-01   1.110907482030000E-01   1.129912027470000E-01
   1.149241429090000E-01   1.168901239860000E-01   1.188897107650000E-01
   1.209234776900000E-01   1.229920090210000E-01   1.250958990100000E-01
   1.272357520610000E-01   1.294121829130000E-01   1.316258168140000E-01
   1.338772896970000E-01   1.361672483670000E-01   1.384963506840000E-01
   1.408652657540000E-01   1.432746741220000E-01   1.457252679630000E-01
   1.482177512860000E-01   1.507528401330000E-01   1.533312627860000E-01
   1.559537599750000E-01   1.586210850940000E-01   1.613340044130000E-01
   1.640932973010000E-01   1.668997564510000E-01   1.697541881030000E-01
   1.726574122810000E-01   1.756102630240000E-01   1.786135886300000E-01
   1.816682518950000E-01   1.847751303650000E-01   1.879351165880000E-01
   1.911491183640000E-01   1.944180590150000E-01   1.977428776450000E-01
   2.011245294090000E-01   2.045639857900000E-01   2.080622348780000E-01
   2.116202816520000E-01   2.152391482700000E-01   2.189198743620000E-01
   2.226635173300000E-01   2.264711526500000E-01   2.303438741810000E-01
   2.342827944820000E-01   2.382890451290000E-01   2.423637770390000E-01
   2.465081608050000E-01   2.507233870270000E-01   2.550106666580000E-01
   2.593712313520000E-01   2.638063338130000E-01   2.683172481610000E-01
   2.729052702940000E-01   2.775717182630000E-01   2.823179326470000E-01
   2.871452769420000E-01   2.920551379500000E-01   2.970489261810000E-01
   3.021280762510000E-01   3.072940473040000E-01   3.125483234220000E-01
   3.178924140570000E-01   3.233278544640000E-01   3.288562061380000E-01
   3.344790572690000E-01   3.401980231930000E-01   3.460147468580000E-01
   3.519308992960000E-01   3.579481801030000E-01   3.640683179270000E-01
   3.702930709670000E-01   3.766242274720000E-01   3.830636062620000E-01
   3.896130572460000E-01   3.962744619530000E-01   4.030497340770000E-01
   4.099408200230000E-01   4.169496994660000E-01   4.240783859200000E-01
   4.313289273210000E-01   4.387034066090000E-01   4.462039423270000E-01
   4.538326892360000E-01   4.615918389270000E-01   4.694836204530000E-01
   4.775103009700000E-01   4.856741863880000E-01   4.939776220340000E-01
   5.024229933240000E-01   5.110127264500000E-01   5.197492890760000E-01
   5.286351910460000E-01   5.376729851099999E-01   5.468652676500000E-01
   5.562146794310000E-01   5.657239063580000E-01   5.753956802490000E-01
   5.852327796160000E-01   5.952380304679999E-01   6.054143071190000E-01
   6.157645330180000E-01   6.262916815839999E-01   6.369987770630000E-01
   6.478888953960000E-01   6.589651651030000E-01   6.702307681830000E-01
   6.816889410250000E-01   6.933429753410000E-01   7.051962191090000E-01
   7.172520775360000E-01   7.295140140380000E-01   7.419855512320001E-01
   7.546702719480000E-01   7.675718202620000E-01   7.806939025390000E-01
   7.940402884990000E-01   8.076148123010000E-01   8.214213736420000E-01
   8.354639388810000E-01   8.497465421740000E-01   8.642732866380000E-01
   8.790483455250000E-01   8.940759634230000E-01   9.093604574760000E-01
   9.249062186240000E-01   9.407177128630000E-01   9.567994825290000E-01
   9.731561476040000E-01   9.897924070410000E-01   1.006713040110000E+00
   1.023922907800000E+00   1.041426954150000E+00   1.059230207740000E+00
   1.077337783110000E+00   1.095754882210000E+00   1.114486795910000E+00
   1.133538905540000E+00   1.152916684390000E+00   1.172625699330000E+00
   1.192671612370000E+00   1.213060182320000E+00   1.233797266410000E+00
   1.254888822020000E+00   1.276340908340000E+00   1.298159688130000E+00
   1.320351429510000E+00   1.342922507740000E+00   1.365879407050000E+00
   1.389228722520000E+00   1.412977161950000E+00   1.437131547810000E+00
   1.461698819180000E+00   1.486686033770000E+00   1.512100369920000E+00
   1.537949128680000E+00   1.564239735890000E+00   1.590979744350000E+00
   1.618176835930000E+00   1.645838823830000E+00   1.673973654810000E+00
   1.702589411470000E+00   1.731694314540000E+00   1.761296725320000E+00
   1.791405147990000E+00   1.822028232130000E+00   1.853174775150000E+00
   1.884853724860000E+00   1.917074182000000E+00   1.949845402890000E+00
   1.983176802070000E+00   2.017077954990000E+00   2.051558600820000E+00
   2.086628645160000E+00   2.122298162960000E+00   2.158577401390000E+00
   2.195476782770000E+00   2.233006907580000E+00   2.271178557490000E+00
   2.310002698490000E+00   2.349490483990000E+00   2.389653258080000E+00
   2.430502558740000E+00   2.472050121180000E+00   2.514307881220000E+00
   2.557287978690000E+00   2.601002760940000E+00   2.645464786390000E+00
   2.690686828110000E+00   2.736681877520000E+00   2.783463148110000E+00
   2.831044079230000E+00   2.879438339960000E+00   2.928659833040000E+00
   2.978722698850000E+00   3.029641319490000E+00   3.081430322880000E+00
   3.134104587010000E+00   3.187679244170000E+00   3.242169685320000E+00
   3.297591564520000E+00   3.353960803390000E+00   3.411293595740000E+00
   3.469606412150000E+00   3.528916004780000E+00   3.589239412120000E+00
   3.650593963920000E+00   3.712997286160000E+00   3.776467306100000E+00
   3.841022257460000E+00   3.906680685610000E+00   3.973461452950000E+00
   4.041383744320000E+00   4.110467072460000E+00   4.180731283680000E+00
   4.252196563540000E+00   4.324883442610000E+00   4.398812802440000E+00
   4.474005881500000E+00   4.550484281300000E+00   4.628269972620000E+00
   4.707385301760000E+00   4.787852997050000E+00   4.869696175290000E+00
   4.952938348430000E+00   5.037603430350000E+00   5.123715743690000E+00
   5.211300026840000E+00   5.300381441090000E+00   5.390985577780000E+00
   5.483138465740000E+00   5.576866578720000E+00   5.672196842970000E+00
   5.769156645050000E+00   5.867773839630000E+00   5.968076757510000E+00
   6.070094213800000E+00   6.173855516120000E+00   6.279390473090000E+00
   6.386729402870000E+00   6.495903141850000E+00   6.606943053530000E+00
   6.719881037540000E+00   6.834749538760000E+00   6.951581556700000E+00
   7.070410654930000E+00   7.191270970760000E+00   7.314197225020000E+00
   7.439224732030000E+00   7.566389409780000E+00   7.695727790230000E+00
   7.827277029780000E+00   7.961074920000000E+00   8.097159898410000E+00
   8.235571059610001E+00   8.376348166450001E+00   8.519531661449999E+00
   8.665162678470001E+00   8.813283054490000E+00   8.963935341610000E+00
   9.117162819330000E+00   9.273009506930000E+00   9.431520176159999E+00
   9.592740364050000E+00   9.756716386060001E+00   9.923495349320000E+00
   1.009312516620000E+01   1.026565456810000E+01   1.044113311920000E+01
   1.061961123140000E+01   1.080114017770000E+01   1.098577210810000E+01
   1.117356006370000E+01   1.136455799220000E+01   1.155882076380000E+01
   1.175640418640000E+01   1.195736502180000E+01   1.216176100220000E+01
   1.236965084670000E+01   1.258109427790000E+01   1.279615203940000E+01
   1.301488591330000E+01   1.323735873750000E+01   1.346363442410000E+01
   1.369377797780000E+01   1.392785551440000E+01   1.416593427970000E+01
   1.440808266930000E+01   1.465437024770000E+01   1.490486776850000E+01
   1.515964719480000E+01   1.541878171980000E+01   1.568234578790000E+01
   1.595041511590000E+01   1.622306671490000E+01   1.650037891250000E+01
   1.678243137510000E+01   1.706930513090000E+01   1.736108259320000E+01
   1.765784758400000E+01   1.795968535820000E+01   1.826668262780000E+01
   1.857892758740000E+01   1.889650993870000E+01   1.921952091720000E+01
   1.954805331740000E+01   1.988220152060000E+01   2.022206152100000E+01
   2.056773095380000E+01   2.091930912300000E+01   2.127689703050000E+01
   2.164059740410000E+01   2.201051472810000E+01   2.238675527240000E+01
   2.276942712380000E+01   2.315864021640000E+01   2.355450636360000E+01
   2.395713929020000E+01   2.436665466470000E+01   2.478317013300000E+01
   2.520680535190000E+01   2.563768202370000E+01   2.607592393080000E+01
   2.652165697180000E+01   2.697500919700000E+01   2.743611084570000E+01
   2.790509438370000E+01   2.838209454070000E+01   2.886724834970000E+01
   2.936069518590000E+01   2.986257680720000E+01   3.037303739430000E+01
   3.089222359280000E+01   3.142028455470000E+01   3.195737198190000E+01
   3.250364016900000E+01   3.305924604840000E+01   3.362434923490000E+01
   3.419911207170000E+01   3.478369967710000E+01   3.537827999170000E+01
   3.598302382700000E+01   3.659810491420000E+01   3.722369995410000E+01
   3.785998866820000E+01   3.850715384980000E+01   3.916538141700000E+01
   3.983486046580000E+01   4.051578332470000E+01   4.120834560950000E+01
   4.191274628000000E+01   4.262918769690000E+01   4.335787567990000E+01
   4.409901956710000E+01   4.485283227460000E+01   4.561953035840000E+01
   4.639933407590000E+01   4.719246744960000E+01   4.799915833150000E+01
   4.881963846810000E+01   4.965414356760000E+01   5.050291336710000E+01
   5.136619170190000E+01   5.224422657490000E+01   5.313727022870000E+01
   5.404557921740000E+01   5.496941448060000E+01   5.590904141830000E+01
   5.686472996720000E+01   5.783675467800000E+01   5.882539479480000E+01
   5.983093433450000E+01   6.085366216930000E+01   6.189387210920000E+01
   6.295186298620000E+01   6.402793874069999E+01   6.512240850840000E+01
   6.623558670940000E+01   6.736779313820000E+01   6.851935305569999E+01
   6.969059728290000E+01   7.088186229560000E+01   7.209349032110001E+01
   7.332582943670000E+01   7.457923366960000E+01   7.585406309870000E+01
   7.715068395759999E+01   7.846946874060001E+01   7.981079630890000E+01
   8.117505199999999E+01   8.256262773820001E+01   8.397392214710000E+01
   8.540934066430000E+01   8.686929565780000E+01   8.835420654430000E+01
   8.986449991009999E+01   9.140060963320001E+01   9.296297700820000E+01
   9.455205087300000E+01   9.616828773780000E+01   9.781215191610001E+01
   9.948411565840000E+01   1.011846592870000E+02   1.029142713370000E+02
   1.046734486900000E+02   1.064626967250000E+02   1.082825294580000E+02
   1.101334696910000E+02   1.120160491650000E+02   1.139308087080000E+02
   1.158782983930000E+02   1.178590776950000E+02   1.198737156560000E+02
   1.219227910410000E+02   1.240068925100000E+02   1.261266187850000E+02
   1.282825788230000E+02   1.304753919880000E+02   1.327056882340000E+02
   1.349741082820000E+02   1.372813038040000E+02   1.396279376140000E+02
   1.420146838550000E+02   1.444422281910000E+02   1.469112680090000E+02
   1.494225126180000E+02   1.519766834480000E+02   1.545745142640000E+02
   1.572167513720000E+02   1.599041538370000E+02   1.626374936950000E+02
   1.654175561840000E+02   1.682451399610000E+02   1.711210573370000E+02
   1.740461345070000E+02   1.770212117880000E+02   1.800471438640000E+02
   1.831248000250000E+02   1.862550644230000E+02   1.894388363230000E+02
   1.926770303590000E+02   1.959705768040000E+02   1.993204218290000E+02
   2.027275277790000E+02
    </PP_R>
    <PP_RAB>
   1.500455312750000E-06   1.526103502270000E-06   1.552190111790000E-06
   1.578722635490000E-06   1.605708695660000E-06   1.633156044860000E-06
   1.661072568190000E-06   1.689466285530000E-06   1.718345353840000E-06
   1.747718069520000E-06   1.777592870780000E-06   1.807978340070000E-06
   1.838883206560000E-06   1.870316348600000E-06   1.902286796340000E-06
   1.934803734270000E-06   1.967876503870000E-06   2.001514606310000E-06
   2.035727705160000E-06   2.070525629190000E-06   2.105918375170000E-06
   2.141916110740000E-06   2.178529177370000E-06   2.215768093270000E-06
   2.253643556470000E-06   2.292166447850000E-06   2.331347834300000E-06
   2.371198971870000E-06   2.411731309010000E-06   2.452956489900000E-06
   2.494886357710000E-06   2.537532958100000E-06   2.580908542600000E-06
   2.625025572190000E-06   2.669896720820000E-06   2.715534879120000E-06
   2.761953158040000E-06   2.809164892660000E-06   2.857183645990000E-06
   2.906023212890000E-06   2.955697624030000E-06   3.006221149900000E-06
   3.057608304940000E-06   3.109873851670000E-06   3.163032804990000E-06
   3.217100436410000E-06   3.272092278550000E-06   3.328024129470000E-06
   3.384912057330000E-06   3.442772404920000E-06   3.501621794400000E-06
   3.561477132070000E-06   3.622355613190000E-06   3.684274726990000E-06
   3.747252261630000E-06   3.811306309320000E-06   3.876455271570000E-06
   3.942717864400000E-06   4.010113123790000E-06   4.078660411070000E-06
   4.148379418560000E-06   4.219290175190000E-06   4.291413052230000E-06
   4.364768769210000E-06   4.439378399790000E-06   4.515263377870000E-06
   4.592445503760000E-06   4.670946950360000E-06   4.750790269640000E-06
   4.831998399040000E-06   4.914594668060000E-06   4.998602805040000E-06
   5.084046943870000E-06   5.170951631020000E-06   5.259341832500000E-06
   5.349242941120000E-06   5.440680783720000E-06   5.533681628630000E-06
   5.628272193190000E-06   5.724479651440000E-06   5.822331641920000E-06
   5.921856275610000E-06   6.023082144020000E-06   6.126038327380000E-06
   6.230754403000000E-06   6.337260453790000E-06   6.445587076890000E-06
   6.555765392420000E-06   6.667827052480000E-06   6.781804250240000E-06
   6.897729729120000E-06   7.015636792270000E-06   7.135559312120000E-06
   7.257531740070000E-06   7.381589116460000E-06   7.507767080560000E-06
   7.636101880860000E-06   7.766630385470000E-06   7.899390092690001E-06
   8.034419141830000E-06   8.171756324120000E-06   8.311441093860001E-06
   8.453513579800000E-06   8.598014596610001E-06   8.744985656629999E-06
   8.894468981810001E-06   9.046507515820000E-06   9.201144936369999E-06
   9.358425667810000E-06   9.518394893860000E-06   9.681098570570000E-06
   9.846583439559999E-06   1.001489704140000E-05   1.018608772940000E-05
   1.036020468330000E-05   1.053729792350000E-05   1.071741832560000E-05
   1.090061763450000E-05   1.108694847990000E-05   1.127646439100000E-05
   1.146921981220000E-05   1.166527011830000E-05   1.186467163080000E-05
   1.206748163380000E-05   1.227375839080000E-05   1.248356116100000E-05
   1.269695021690000E-05   1.291398686080000E-05   1.313473344320000E-05
   1.335925338040000E-05   1.358761117260000E-05   1.381987242260000E-05
   1.405610385440000E-05   1.429637333290000E-05   1.454074988280000E-05
   1.478930370880000E-05   1.504210621560000E-05   1.529923002840000E-05
   1.556074901390000E-05   1.582673830150000E-05   1.609727430470000E-05
   1.637243474340000E-05   1.665229866570000E-05   1.693694647130000E-05
   1.722645993380000E-05   1.752092222480000E-05   1.782041793780000E-05
   1.812503311210000E-05   1.843485525760000E-05   1.874997338030000E-05
   1.907047800750000E-05   1.939646121400000E-05   1.972801664850000E-05
   2.006523956040000E-05   2.040822682740000E-05   2.075707698300000E-05
   2.111189024520000E-05   2.147276854490000E-05   2.183981555550000E-05
   2.221313672240000E-05   2.259283929380000E-05   2.297903235060000E-05
   2.337182683880000E-05   2.377133560060000E-05   2.417767340710000E-05
   2.459095699130000E-05   2.501130508160000E-05   2.543883843580000E-05
   2.587367987610000E-05   2.631595432390000E-05   2.676578883620000E-05
   2.722331264160000E-05   2.768865717800000E-05   2.816195612980000E-05
   2.864334546660000E-05   2.913296348230000E-05   2.963095083470000E-05
   3.013745058590000E-05   3.065260824340000E-05   3.117657180210000E-05
   3.170949178660000E-05   3.225152129450000E-05   3.280281604040000E-05
   3.336353440060000E-05   3.393383745850000E-05   3.451388905140000E-05
   3.510385581670000E-05   3.570390724040000E-05   3.631421570580000E-05
   3.693495654270000E-05   3.756630807790000E-05   3.820845168640000E-05
   3.886157184380000E-05   3.952585617870000E-05   4.020149552730000E-05
   4.088868398750000E-05   4.158761897550000E-05   4.229850128170000E-05
   4.302153512870000E-05   4.375692823030000E-05   4.450489185060000E-05
   4.526564086520000E-05   4.603939382240000E-05   4.682637300660000E-05
   4.762680450160000E-05   4.844091825600000E-05   4.926894814880000E-05
   5.011113205700000E-05   5.096771192370000E-05   5.183893382780000E-05
   5.272504805450000E-05   5.362630916720000E-05   5.454297608080000E-05
   5.547531213600000E-05   5.642358517480000E-05   5.738806761790000E-05
   5.836903654220000E-05   5.936677376130000E-05   6.038156590570000E-05
   6.141370450550000E-05   6.246348607420000E-05   6.353121219380001E-05
   6.461718960120000E-05   6.572173027680000E-05   6.684515153379999E-05
   6.798777610920000E-05   6.914993225720000E-05   7.033195384249999E-05
   7.153418043720000E-05   7.275695741770000E-05   7.400063606420000E-05
   7.526557366140000E-05   7.655213360150000E-05   7.786068548820001E-05
   7.919160524319999E-05   8.054527521400000E-05   8.192208428369999E-05
   8.332242798290000E-05   8.474670860340000E-05   8.619533531330000E-05
   8.766872427510001E-05   8.916729876489999E-05   9.069148929419999E-05
   9.224173373340001E-05   9.381847743780000E-05   9.542217337520000E-05
   9.705328225660000E-05   9.871227266790000E-05   1.003996212050000E-04
   1.021158126100000E-04   1.038613399130000E-04   1.056367045680000E-04
   1.074424166050000E-04   1.092789947690000E-04   1.111469666730000E-04
   1.130468689500000E-04   1.149792474050000E-04   1.169446571730000E-04
   1.189436628780000E-04   1.209768387950000E-04   1.230447690170000E-04
   1.251480476210000E-04   1.272872788370000E-04   1.294630772240000E-04
   1.316760678490000E-04   1.339268864600000E-04   1.362161796740000E-04
   1.385446051600000E-04   1.409128318310000E-04   1.433215400310000E-04
   1.457714217360000E-04   1.482631807500000E-04   1.507975329070000E-04
   1.533752062770000E-04   1.559969413760000E-04   1.586634913770000E-04
   1.613756223300000E-04   1.641341133750000E-04   1.669397569760000E-04
   1.697933591380000E-04   1.726957396460000E-04   1.756477322990000E-04
   1.786501851460000E-04   1.817039607350000E-04   1.848099363550000E-04
   1.879690042940000E-04   1.911820720900000E-04   1.944500627960000E-04
   1.977739152430000E-04   2.011545843080000E-04   2.045930411920000E-04
   2.080902736990000E-04   2.116472865140000E-04   2.152651014990000E-04
   2.189447579820000E-04   2.226873130580000E-04   2.264938418890000E-04
   2.303654380180000E-04   2.343032136800000E-04   2.383083001210000E-04
   2.423818479250000E-04   2.465250273440000E-04   2.507390286330000E-04