<UPF version="2.0.1">
  <PP_INFO>
    Generated by new atomic code, or converted to UPF format
    Author: 
    Generation date: 
    Pseudopotential type: US
    Element: O
    Functional: SLA  PZ   NOGX NOGC
    Suggested minimum cutoff for wavefunctions:   0. Ry
    Suggested minimum cutoff for charge density:   0. Ry
    The Pseudo was generated with a Non-Relativistic Calculation
    L component and cutoff radius for Local Potential:  0   0.0000
    Valence configuration: 
    nl pn  l   occ       Rcut    Rcut US       E pseu
    2S  1  0  2.00      0.000      0.000     0.000000
    2P  2  1  4.00      0.000      0.000     0.000000
    Generation configuration: not available.
  </PP_INFO>
    <!-- END OF HUMAN READABLE SECTION -->
  <PP_HEADER generated="Generated by new atomic code, or converted to UPF format" author="" date="" comment="" element="O" pseudo_type="US" relativistic="no" is_ultrasoft="true" is_paw="false" is_coulomb="false" has_so="false" has_wfc="false" has_gipaw="false" paw_as_gipaw="false" core_correction="true" functional="SLA  PZ   NOGX NOGC" z_valence="6.0000000000000000" total_psenergy="-31.720086129500000" wfc_cutoff="0.0000000000000000" rho_cutoff="0.0000000000000000" l_max="2" l_max_rho="0" l_local="0" mesh_size="737" number_of_wfc="2" number_of_proj="5"/>
  <PP_MESH>
    <PP_R>
   0.000000000000000E+00   5.296351134990000E-06   1.068323600100000E-05
   1.616220214570000E-05   2.173482357020000E-05   2.740270118070000E-05
   3.316746324880000E-05   3.903076587910000E-05   4.499429348490000E-05
   5.105975927240000E-05   5.722890573250000E-05   6.350350514150000E-05
   6.988536007060000E-05   7.637630390300000E-05   8.297820136140000E-05
   8.969294904320001E-05   9.652247596540000E-05   1.034687441190000E-04
   1.105337490320000E-04   1.177195203450000E-04   1.250281223890000E-04
   1.324616547850000E-04   1.400222530430000E-04   1.477120891770000E-04
   1.555333723280000E-04   1.634883493980000E-04   1.715793057000000E-04
   1.798085656070000E-04   1.881784932280000E-04   1.966914930800000E-04
   2.053500107840000E-04   2.141565337640000E-04   2.231135919640000E-04
   2.322237585730000E-04   2.414896507660000E-04   2.509139304550000E-04
   2.604993050520000E-04   2.702485282510000E-04   2.801644008140000E-04
   2.902497713790000E-04   3.005075372800000E-04   3.109406453720000E-04
   3.215520928870000E-04   3.323449282870000E-04   3.433222521460000E-04
   3.544872180360000E-04   3.658430334370000E-04   3.773929606530000E-04
   3.891403177550000E-04   4.010884795330000E-04   4.132408784610000E-04
   4.256010056890000E-04   4.381724120410000E-04   4.509587090410000E-04
   4.639635699430000E-04   4.771907307920000E-04   4.906439914960000E-04
   5.043272169160000E-04   5.182443379780000E-04   5.323993528020000E-04
   5.467963278500000E-04   5.614393990930000E-04   5.763327732030000E-04
   5.914807287580000E-04   6.068876174730000E-04   6.225578654480000E-04
   6.384959744420000E-04   6.547065231670000E-04   6.711941685980000E-04
   6.879636473180000E-04   7.050197768720000E-04   7.223674571580000E-04
   7.400116718270000E-04   7.579574897210000E-04   7.762100663270000E-04
   7.947746452570000E-04   8.136565597540000E-04   8.328612342280000E-04
   8.523941858100000E-04   8.722610259379999E-04   8.924674619730000E-04
   9.130192988300000E-04   9.339224406570000E-04   9.551828925200000E-04
   9.768067621359999E-04   9.988002616250001E-04   1.021169709290000E-03
   1.043921531450000E-03   1.067062264250000E-03   1.090598555590000E-03
   1.114537166980000E-03   1.138884975520000E-03   1.163648975870000E-03
   1.188836282240000E-03   1.214454130470000E-03   1.240509880050000E-03
   1.267011016310000E-03   1.293965152520000E-03   1.321380032060000E-03
   1.349263530700000E-03   1.377623658850000E-03   1.406468563800000E-03
   1.435806532150000E-03   1.465645992120000E-03   1.495995516010000E-03
   1.526863822660000E-03   1.558259779930000E-03   1.590192407280000E-03
   1.622670878320000E-03   1.655704523500000E-03   1.689302832740000E-03
   1.723475458190000E-03   1.758232216970000E-03   1.793583094040000E-03
   1.829538245020000E-03   1.866107999130000E-03   1.903302862140000E-03
   1.941133519430000E-03   1.979610839010000E-03   2.018745874660000E-03
   2.058549869140000E-03   2.099034257350000E-03   2.140210669670000E-03
   2.182090935300000E-03   2.224687085610000E-03   2.268011357670000E-03
   2.312076197700000E-03   2.356894264670000E-03   2.402478433950000E-03
   2.448841800980000E-03   2.495997685060000E-03   2.543959633180000E-03
   2.592741423860000E-03   2.642357071170000E-03   2.692820828720000E-03
   2.744147193790000E-03   2.796350911430000E-03   2.849446978770000E-03
   2.903450649280000E-03   2.958377437170000E-03   3.014243121850000E-03
   3.071063752430000E-03   3.128855652390000E-03   3.187635424230000E-03
   3.247419954240000E-03   3.308226417350000E-03   3.370072282080000E-03
   3.432975315560000E-03   3.496953588610000E-03   3.562025480940000E-03
   3.628209686460000E-03   3.695525218610000E-03   3.763991415830000E-03
   3.833627947140000E-03   3.904454817770000E-03   3.976492374910000E-03
   4.049761313540000E-03   4.124282682430000E-03   4.200077890120000E-03
   4.277168711100000E-03   4.355577292080000E-03   4.435326158320000E-03
   4.516438220130000E-03   4.598936779430000E-03   4.682845536470000E-03
   4.768188596610000E-03   4.854990477260000E-03   4.943276114910000E-03
   5.033070872330000E-03   5.124400545800000E-03   5.217291372580000E-03
   5.311770038410000E-03   5.407863685170000E-03   5.505599918720000E-03
   5.605006816780000E-03   5.706112937020000E-03   5.808947325280000E-03
   5.913539523900000E-03   6.019919580180000E-03   6.128118055060000E-03
   6.238166031860000E-03   6.350095125240000E-03   6.463937490260000E-03
   6.579725831630000E-03   6.697493413100000E-03   6.817274067020000E-03
   6.939102204050000E-03   7.063012823060000E-03   7.189041521170000E-03
   7.317224503990000E-03   7.447598596000000E-03   7.580201251160000E-03
   7.715070563660000E-03   7.852245278820001E-03   7.991764804300000E-03
   8.133669221350000E-03   8.277999296360000E-03   8.424796492579999E-03
   8.574102981990000E-03   8.725961657469999E-03   8.880416145070000E-03
   9.037510816580000E-03   9.197290802249999E-03   9.359802003779999E-03
   9.525091107510000E-03   9.693205597780001E-03   9.864193770640000E-03
   1.003810474770000E-02   1.021498849020000E-02   1.039489581340000E-02
   1.057787840120000E-02   1.076398882090000E-02   1.095328053860000E-02
   1.114580793400000E-02   1.134162631650000E-02   1.154079194100000E-02
   1.174336202390000E-02   1.194939475960000E-02   1.215894933740000E-02
   1.237208595830000E-02   1.258886585220000E-02   1.280935129590000E-02
   1.303360563060000E-02   1.326169328010000E-02   1.349367976960000E-02
   1.372963174450000E-02   1.396961698900000E-02   1.421370444640000E-02
   1.446196423820000E-02   1.471446768470000E-02   1.497128732520000E-02
   1.523249693900000E-02   1.549817156660000E-02   1.576838753120000E-02
   1.604322246060000E-02   1.632275530960000E-02   1.660706638250000E-02
   1.689623735640000E-02   1.719035130450000E-02   1.748949272010000E-02
   1.779374754070000E-02   1.810320317290000E-02   1.841794851720000E-02
   1.873807399390000E-02   1.906367156880000E-02   1.939483477990000E-02
   1.973165876390000E-02   2.007424028380000E-02   2.042267775670000E-02
   2.077707128200000E-02   2.113752266990000E-02   2.150413547130000E-02
   2.187701500680000E-02   2.225626839760000E-02   2.264200459590000E-02
   2.303433441610000E-02   2.343337056700000E-02   2.383922768410000E-02
   2.425202236210000E-02   2.467187318910000E-02   2.509890078000000E-02
   2.553322781160000E-02   2.597497905770000E-02   2.642428142480000E-02
   2.688126398880000E-02   2.734605803190000E-02   2.781879708060000E-02
   2.829961694350000E-02   2.878865575100000E-02   2.928605399430000E-02
   2.979195456650000E-02   3.030650280290000E-02   3.082984652330000E-02
   3.136213607420000E-02   3.190352437210000E-02   3.245416694740000E-02
   3.301422198900000E-02   3.358385038990000E-02   3.416321579340000E-02
   3.475248463990000E-02   3.535182621490000E-02   3.596141269770000E-02
   3.658141921060000E-02   3.721202386970000E-02   3.785340783520000E-02
   3.850575536460000E-02   3.916925386450000E-02   3.984409394530000E-02
   4.053046947550000E-02   4.122857763750000E-02   4.193861898410000E-02
   4.266079749670000E-02   4.339532064310000E-02   4.414239943750000E-02
   4.490224850130000E-02   4.567508612430000E-02   4.646113432800000E-02
   4.726061892870000E-02   4.807376960290000E-02   4.890081995290000E-02
   4.974200757450000E-02   5.059757412450000E-02   5.146776539070000E-02
   5.235283136200000E-02   5.325302630100000E-02   5.416860881610000E-02
   5.509984193650000E-02   5.604699318740000E-02   5.701033466720000E-02
   5.799014312500000E-02   5.898670004110000E-02   6.000029170680000E-02
   6.103120930740000E-02   6.207974900570000E-02   6.314621202670000E-02
   6.423090474470000E-02   6.533413877100000E-02   6.645623104320000E-02
   6.759750391680000E-02   6.875828525740001E-02   6.993890853500000E-02
   7.113971291979999E-02   7.236104337980000E-02   7.360325077950000E-02
   7.486669198100000E-02   7.615172994659999E-02   7.745873384269999E-02
   7.878807914650000E-02   8.014014775290000E-02   8.151532808520000E-02
   8.291401520600000E-02   8.433661093120000E-02   8.578352394490001E-02
   8.725516991720000E-02   8.875197162360000E-02   9.027435906620000E-02
   9.182276959740000E-02   9.339764804570000E-02   9.499944684320000E-02
   9.662862615560000E-02   9.828565401460000E-02   9.997100645230000E-02
   1.016851676380000E-01   1.034286300170000E-01   1.052018944510000E-01
   1.070054703670000E-01   1.088398758960000E-01   1.107056380270000E-01
   1.126032927580000E-01   1.145333852480000E-01   1.164964699760000E-01
   1.184931108970000E-01   1.205238816080000E-01   1.225893655110000E-01
   1.246901559780000E-01   1.268268565260000E-01   1.290000809880000E-01
   1.312104536900000E-01   1.334586096280000E-01   1.357451946540000E-01
   1.380708656600000E-01   1.404362907660000E-01   1.428421495130000E-01
   1.452891330570000E-01   1.477779443700000E-01   1.503092984400000E-01
   1.528839224740000E-01   1.555025561130000E-01   1.581659516390000E-01
   1.608748741950000E-01   1.636301020020000E-01   1.664324265820000E-01
   1.692826529900000E-01   1.721816000410000E-01   1.751301005460000E-01
   1.781290015520000E-01   1.811791645850000E-01   1.842814658990000E-01
   1.874367967240000E-01   1.906460635260000E-01   1.939101882650000E-01
   1.972301086600000E-01   2.006067784620000E-01   2.040411677220000E-01
   2.075342630720000E-01   2.110870680130000E-01   2.147006031960000E-01
   2.183759067190000E-01   2.221140344280000E-01   2.259160602120000E-01
   2.297830763210000E-01   2.337161936730000E-01   2.377165421780000E-01
   2.417852710570000E-01   2.459235491780000E-01   2.501325653880000E-01
   2.544135288560000E-01   2.587676694200000E-01   2.631962379400000E-01
   2.677005066590000E-01   2.722817695650000E-01   2.769413427670000E-01
   2.816805648690000E-01   2.865007973600000E-01   2.914034249970000E-01
   2.963898562120000E-01   3.014615235100000E-01   3.066198838810000E-01
   3.118664192240000E-01   3.172026367670000E-01   3.226300695020000E-01
   3.281502766240000E-01   3.337648439830000E-01   3.394753845350000E-01
   3.452835388090000E-01   3.511909753730000E-01   3.571993913220000E-01
   3.633105127550000E-01   3.695260952810000E-01   3.758479245150000E-01
   3.822778165970000E-01   3.888176187110000E-01   3.954692096150000E-01
   4.022345001820000E-01   4.091154339500000E-01   4.161139876770000E-01
   4.232321719140000E-01   4.304720315750000E-01   4.378356465330000E-01
   4.453251322130000E-01   4.529426401970000E-01   4.606903588490000E-01
   4.685705139390000E-01   4.765853692830000E-01   4.847372273930000E-01
   4.930284301410000E-01   5.014613594280000E-01   5.100384378720000E-01
   5.187621295020000E-01   5.276349404660000E-01   5.366594197500000E-01
   5.458381599120000E-01   5.551737978280000E-01   5.646690154450000E-01
   5.743265405550000E-01   5.841491475790000E-01   5.941396583620000E-01
   6.043009429830000E-01   6.146359205840000E-01   6.251475602030000E-01
   6.358388816320000E-01   6.467129562790001E-01   6.577729080560000E-01
   6.690219142740000E-01   6.804632065530000E-01   6.921000717569999E-01
   7.039358529300000E-01   7.159739502650000E-01   7.282178220730000E-01
   7.406709857820000E-01   7.533370189440000E-01   7.662195602670000E-01
   7.793223106550000E-01   7.926490342740000E-01   8.062035596340000E-01
   8.199897806880000E-01   8.340116579510000E-01   8.482732196370000E-01
   8.627785628160000E-01   8.775318545930000E-01   8.925373333040000E-01
   9.077993097300000E-01   9.233221683440000E-01   9.391103685620000E-01
   9.551684460290000E-01   9.715010139190000E-01   9.881127642630000E-01
   1.005008469300000E+00   1.022192982830000E+00   1.039671241630000E+00
   1.057448266880000E+00   1.075529165560000E+00   1.093919131980000E+00
   1.112623449200000E+00   1.131647490620000E+00   1.150996721480000E+00
   1.170676700440000E+00   1.190693081180000E+00   1.211051614000000E+00
   1.231758147530000E+00   1.252818630360000E+00   1.274239112750000E+00
   1.296025748380000E+00   1.318184796150000E+00   1.340722621920000E+00
   1.363645700360000E+00   1.386960616840000E+00   1.410674069270000E+00
   1.434792870080000E+00   1.459323948130000E+00   1.484274350720000E+00
   1.509651245620000E+00   1.535461923130000E+00   1.561713798150000E+00
   1.588414412330000E+00   1.615571436240000E+00   1.643192671580000E+00
   1.671286053390000E+00   1.699859652360000E+00   1.728921677120000E+00
   1.758480476630000E+00   1.788544542570000E+00   1.819122511760000E+00
   1.850223168660000E+00   1.881855447880000E+00   1.914028436770000E+00
   1.946751378010000E+00   1.980033672250000E+00   2.013884880870000E+00
   2.048314728650000E+00   2.083333106640000E+00   2.118950074920000E+00
   2.155175865560000E+00   2.192020885540000E+00   2.229495719720000E+00
   2.267611133890000E+00   2.306378077860000E+00   2.345807688640000E+00
   2.385911293590000E+00   2.426700413690000E+00   2.468186766880000E+00
   2.510382271380000E+00   2.553299049130000E+00   2.596949429310000E+00
   2.641345951820000E+00   2.686501370920000E+00   2.732428658890000E+00
   2.779141009750000E+00   2.826651843050000E+00   2.874974807750000E+00
   2.924123786080000E+00   2.974112897610000E+00   3.024956503230000E+00
   3.076669209340000E+00   3.129265871980000E+00   3.182761601170000E+00
   3.237171765190000E+00   3.292511995020000E+00   3.348798188850000E+00
   3.406046516610000E+00   3.464273424640000E+00   3.523495640400000E+00
   3.583730177290000E+00   3.644994339520000E+00   3.707305727100000E+00
   3.770682240890000E+00   3.835142087730000E+00   3.900703785700000E+00
   3.967386169390000E+00   4.035208395370000E+00   4.104189947640000E+00
   4.174350643290000E+00   4.245710638110000E+00   4.318290432440000E+00
   4.392110877070000E+00   4.467193179180000E+00   4.543558908450000E+00
   4.621230003290000E+00   4.700228777100000E+00   4.780577924690000E+00
   4.862300528820000E+00   4.945420066820000E+00   5.029960417320000E+00
   5.115945867120000E+00   5.203401118190000E+00   5.292351294720000E+00
   5.382821950380000E+00   5.474839075630000E+00   5.568429105220000E+00
   5.663618925750000E+00   5.760435883410000E+00   5.858907791850000E+00
   5.959062940130000E+00   6.060930100890000E+00   6.164538538600000E+00
   6.269918017960000E+00   6.377098812440000E+00   6.486111713030000E+00
   6.596988037010000E+00   6.709759637010000E+00   6.824458910120000E+00
   6.941118807230000E+00   7.059772842470000E+00   7.180455102850000E+00
   7.303200258050000E+00   7.428043570360000E+00   7.555020904870000E+00
   7.684168739700000E+00   7.815524176530000E+00   7.949124951230000E+00
   8.085009444710000E+00   8.223216693970000E+00   8.363786403270000E+00
   8.506758955570000E+00   8.652175424119999E+00   8.800077584260000E+00
   8.950507925400000E+00   9.103509663290000E+00   9.259126752349999E+00
   9.417403898370001E+00   9.578386571310000E+00   9.742121018370000E+00
   9.908654277289999E+00   1.007803418990000E+01   1.025030941560000E+01
   1.042552944600000E+01   1.060374461820000E+01   1.078500613010000E+01
   1.096936605450000E+01   1.115687735460000E+01   1.134759389860000E+01
   1.154157047580000E+01   1.173886281190000E+01   1.193952758510000E+01
   1.214362244250000E+01   1.235120601670000E+01   1.256233794240000E+01
   1.277707887370000E+01   1.299549050160000E+01   1.321763557140000E+01
   1.344357790110000E+01   1.367338239960000E+01   1.390711508530000E+01
   1.414484310510000E+01   1.438663475360000E+01   1.463255949290000E+01
   1.488268797240000E+01   1.513709204910000E+01   1.539584480850000E+01
   1.565902058520000E+01   1.592669498460000E+01   1.619894490420000E+01
   1.647584855620000E+01   1.675748548970000E+01   1.704393661350000E+01
   1.733528421950000E+01   1.763161200620000E+01   1.793300510290000E+01
   1.823955009400000E+01   1.855133504380000E+01   1.886844952220000E+01
   1.919098463010000E+01   1.951903302550000E+01   1.985268895040000E+01
   2.019204825770000E+01   2.053720843870000E+01   2.088826865130000E+01
   2.124532974830000E+01   2.160849430640000E+01   2.197786665580000E+01
   2.235355291010000E+01   2.273566099650000E+01   2.312430068740000E+01
   2.351958363140000E+01   2.392162338570000E+01   2.433053544850000E+01
   2.474643729230000E+01   2.516944839770000E+01   2.559969028760000E+01
   2.603728656210000E+01   2.648236293420000E+01   2.693504726580000E+01
   2.739546960420000E+01   2.786376222000000E+01   2.834005964450000E+01
   2.882449870870000E+01   2.931721858260000E+01   2.981836081510000E+01
   3.032806937470000E+01   3.084649069070000E+01   3.137377369560000E+01
   3.191006986760000E+01   3.245553327430000E+01   3.301032061650000E+01
   3.357459127420000E+01   3.414850735120000E+01   3.473223372260000E+01
   3.532593808170000E+01   3.592979098820000E+01   3.654396591740000E+01
   3.716863930980000E+01   3.780399062210000E+01   3.845020237840000E+01
   3.910746022280000E+01   3.977595297270000E+01   4.045587267330000E+01
   4.114741465220000E+01   4.185077757620000E+01   4.256616350770000E+01
   4.329377796330000E+01   4.403382997250000E+01   4.478653213800000E+01
   4.555210069660000E+01   4.633075558120000E+01   4.712272048440000E+01
   4.792822292230000E+01   4.874749430030000E+01   4.958076997900000E+01
   5.042828934260000E+01   5.129029586680000E+01   5.216703718960000E+01
   5.305876518170000E+01   5.396573601930000E+01   5.488821025760000E+01
   5.582645290550000E+01   5.678073350210000E+01   5.775132619380000E+01
   5.873850981290000E+01   5.974256795820000E+01   6.076378907630000E+01
   6.180246654410000E+01   6.285889875370000E+01   6.393338919750000E+01
   6.502624655580000E+01   6.613778478560000E+01   6.726832321000001E+01
   6.841818661110000E+01   6.958770532219999E+01   7.077721532350000E+01
   7.198705833810000E+01   7.321758193070001E+01   7.446913960670000E+01
   7.574209091450000E+01   7.703680154830001E+01   7.835364345350000E+01
   7.969299493330000E+01   8.105524075740000E+01
    </PP_R>
    <PP_RAB>
   5.251593594630000E-06   5.341362257940000E-06   5.432665391260000E-06
   5.525529224220000E-06   5.619980434810000E-06   5.716046157020000E-06
   5.813753988680000E-06   5.913131999360000E-06   6.014208738440000E-06
   6.117013243320000E-06   6.221575047730000E-06   6.327924190250000E-06
   6.436091222950000E-06   6.546107220110000E-06   6.658003787200000E-06
   6.771813069940000E-06   6.887567763540000E-06   7.005301122070000E-06
   7.125046968060000E-06   7.246839702170000E-06   7.370714313090000E-06
   7.496706387600000E-06   7.624852120790000E-06   7.755188326450000E-06
   7.887752447640000E-06   8.022582567480000E-06   8.159717420050000E-06
   8.299196401530000E-06   8.441059581550000E-06   8.585347714629999E-06
   8.732102251990001E-06   8.881365353349999E-06   9.033179899109999E-06
   9.187589502650000E-06   9.344638522880000E-06   9.504372076920001E-06
   9.666836053150000E-06   9.832077124310000E-06   1.000014276100000E-05
   1.017108124510000E-05   1.034494168410000E-05   1.052177402470000E-05
   1.070162906730000E-05   1.088455848090000E-05   1.107061481740000E-05
   1.125985152750000E-05   1.145232297490000E-05   1.164808445320000E-05
   1.184719220070000E-05   1.204970341720000E-05   1.225567628040000E-05
   1.246516996220000E-05   1.267824464620000E-05   1.289496154450000E-05
   1.311538291570000E-05   1.333957208260000E-05   1.356759345050000E-05
   1.379951252540000E-05   1.403539593330000E-05   1.427531143870000E-05
   1.451932796500000E-05   1.476751561320000E-05   1.501994568280000E-05
   1.527669069220000E-05   1.553782439930000E-05   1.580342182260000E-05
   1.607355926310000E-05   1.634831432630000E-05   1.662776594380000E-05
   1.691199439660000E-05   1.720108133820000E-05   1.749510981760000E-05
   1.779416430360000E-05   1.809833070860000E-05   1.840769641370000E-05
   1.872235029390000E-05   1.904238274300000E-05   1.936788570020000E-05
   1.969895267620000E-05   2.003567878000000E-05   2.037816074670000E-05
   2.072649696460000E-05   2.108078750410000E-05   2.144113414580000E-05
   2.180764041050000E-05   2.218041158830000E-05   2.255955476910000E-05
   2.294517887350000E-05   2.333739468370000E-05   2.373631487580000E-05
   2.414205405190000E-05   2.455472877290000E-05   2.497445759240000E-05
   2.540136109030000E-05   2.583556190760000E-05   2.627718478200000E-05
   2.672635658300000E-05   2.718320634910000E-05   2.764786532440000E-05
   2.812046699640000E-05   2.860114713440000E-05   2.909004382850000E-05
   2.958729752930000E-05   3.009305108810000E-05   3.060744979820000E-05
   3.113064143630000E-05   3.166277630540000E-05   3.220400727730000E-05
   3.275448983740000E-05   3.331438212850000E-05   3.388384499700000E-05
   3.446304203850000E-05   3.505213964500000E-05   3.565130705300000E-05
   3.626071639160000E-05   3.688054273240000E-05   3.751096413940000E-05
   3.815216172060000E-05   3.880431967950000E-05   3.946762536860000E-05
   4.014226934270000E-05   4.082844541400000E-05   4.152635070770000E-05
   4.223618571830000E-05   4.295815436770000E-05   4.369246406370000E-05
   4.443932575900000E-05   4.519895401280000E-05   4.597156705130000E-05
   4.675738683150000E-05   4.755663910420000E-05   4.836955347900000E-05
   4.919636349050000E-05   5.003730666530000E-05   5.089262459000000E-05
   5.176256298090000E-05   5.264737175450000E-05   5.354730509930000E-05
   5.446262154860000E-05   5.539358405520000E-05   5.634046006660000E-05
   5.730352160190000E-05   5.828304533010000E-05   5.927931264940000E-05
   6.029260976820000E-05   6.132322778700001E-05   6.237146278250000E-05
   6.343761589230001E-05   6.452199340150000E-05   6.562490683100000E-05
   6.674667302620000E-05   6.788761424910000E-05   6.904805826980000E-05
   7.022833846150000E-05   7.142879389590000E-05   7.264976944050000E-05
   7.389161585810001E-05   7.515468990710000E-05   7.643935444410000E-05
   7.774597852850000E-05   7.907493752810000E-05   8.042661322710000E-05
   8.180139393579999E-05   8.319967460199999E-05   8.462185692470000E-05
   8.606834946940000E-05   8.753956778540000E-05   8.903593452530000E-05
   9.055787956630000E-05   9.210584013369999E-05   9.368026092660000E-05
   9.528159424570000E-05   9.691030012300000E-05   9.856684645429999E-05
   1.002517091330000E-04   1.019653721880000E-04   1.037083279210000E-04
   1.054810770510000E-04   1.072841288520000E-04   1.091180013070000E-04
   1.109832212530000E-04   1.128803245310000E-04   1.148098561410000E-04
   1.167723704020000E-04   1.187684311050000E-04   1.207986116800000E-04
   1.228634953580000E-04   1.249636753410000E-04   1.270997549700000E-04
   1.292723479000000E-04   1.314820782730000E-04   1.337295809030000E-04
   1.360155014530000E-04   1.383404966250000E-04   1.407052343450000E-04
   1.431103939560000E-04   1.455566664140000E-04   1.480447544860000E-04
   1.505753729500000E-04   1.531492488060000E-04   1.557671214770000E-04
   1.584297430280000E-04   1.611378783780000E-04   1.638923055230000E-04
   1.666938157560000E-04   1.695432138960000E-04   1.724413185210000E-04
   1.753889621990000E-04   1.783869917330000E-04   1.814362683970000E-04
   1.845376681910000E-04   1.876920820850000E-04   1.909004162830000E-04
   1.941635924760000E-04   1.974825481120000E-04   2.008582366630000E-04
   2.042916278980000E-04   2.077837081650000E-04   2.113354806700000E-04
   2.149479657690000E-04   2.186222012600000E-04   2.223592426780000E-04
   2.261601636040000E-04   2.300260559690000E-04   2.339580303680000E-04
   2.379572163820000E-04   2.420247629000000E-04   2.461618384490000E-04
   2.503696315300000E-04   2.546493509620000E-04   2.590022262250000E-04
   2.634295078150000E-04   2.679324676050000E-04   2.725123992090000E-04
   2.771706183510000E-04   2.819084632490000E-04   2.867272949930000E-04
   2.916284979400000E-04   2.966134801120000E-04   3.016836735970000E-04
   3.068405349630000E-04   3.120855456770000E-04   3.174202125300000E-04
   3.228460680670000E-04   3.283646710320000E-04   3.339776068130000E-04
   3.396864878980000E-04   3.454929543380000E-04   3.513986742170000E-04
   3.574053441360000E-04   3.635146896950000E-04   3.697284659890000E-04
   3.760484581170000E-04   3.824764816900000E-04   3.890143833550000E-04
   3.956640413250000E-04   4.024273659170000E-04   4.093063001050000E-04
   4.163028200720000E-04   4.234189357830000E-04   4.306566915610000E-04
   4.380181666730000E-04   4.455054759280000E-04   4.531207702850000E-04
   4.608662374720000E-04   4.687441026100000E-04   4.767566288590000E-04
   4.849061180610000E-04   4.931949114080000E-04   5.016253901090000E-04
   5.101999760780000E-04   5.189211326270000E-04   5.277913651760000E-04
   5.368132219700000E-04   5.459892948160000E-04   5.553222198210000E-04
   5.648146781540000E-04   5.744693968140000E-04   5.842891494150000E-04
   5.942767569820000E-04   6.044350887620000E-04   6.147670630470000E-04
   6.252756480120000E-04   6.359638625720000E-04   6.468347772430000E-04
   6.578915150280000E-04   6.691372523150000E-04   6.805752197870000E-04
   6.922087033490000E-04   7.040410450770001E-04   7.160756441730000E-04
   7.283159579450000E-04   7.407655027990000E-04   7.534278552470000E-04
   7.663066529380000E-04   7.794055957020000E-04   7.927284466120000E-04
   8.062790330640000E-04   8.200612478800000E-04   8.340790504240000E-04
   8.483364677390000E-04   8.628375957050000E-04   8.775866002160000E-04
   8.925877183750000E-04   9.078452597130000E-04   9.233636074270000E-04
   9.391472196370000E-04   9.552006306700000E-04   9.715284523600000E-04
   9.881353753750000E-04   1.005026170560000E-03   1.022205690320000E-03
   1.039678869990000E-03   1.057450729280000E-03   1.075526373710000E-03
   1.093910996050000E-03   1.112609877850000E-03   1.131628390940000E-03
   1.150971998960000E-03   1.170646258970000E-03   1.190656823000000E-03
   1.211009439690000E-03   1.231709955960000E-03   1.252764318670000E-03
   1.274178576320000E-03   1.295958880820000E-03   1.318111489230000E-03
   1.340642765570000E-03   1.363559182630000E-03   1.386867323850000E-03
   1.410573885220000E-03   1.434685677170000E-03   1.459209626560000E-03
   1.484152778630000E-03   1.509522299080000E-03   1.535325476070000E-03
   1.561569722360000E-03   1.588262577420000E-03   1.615411709580000E-03
   1.643024918270000E-03   1.671110136220000E-03   1.699675431770000E-03
   1.728729011190000E-03   1.758279220990000E-03   1.788334550400000E-03
   1.818903633710000E-03   1.849995252850000E-03   1.881618339810000E-03
   1.913781979320000E-03   1.946495411360000E-03   1.979768033860000E-03
   2.013609405410000E-03   2.048029247970000E-03   2.083037449710000E-03
   2.118644067800000E-03   2.154859331330000E-03   2.191693644250000E-03
   2.229157588340000E-03   2.267261926270000E-03   2.306017604670000E-03
   2.345435757320000E-03   2.385527708270000E-03   2.426304975160000E-03
   2.467779272530000E-03   2.509962515130000E-03   2.552866821390000E-03
   2.596504516880000E-03   2.640888137880000E-03   2.686030434940000E-03
   2.731944376560000E-03   2.778643152940000E-03   2.826140179730000E-03
   2.874449101900000E-03   2.923583797680000E-03   2.973558382510000E-03
   3.024387213120000E-03   3.076084891650000E-03   3.128666269850000E-03
   3.182146453320000E-03   3.236540805900000E-03   3.291864954010000E-03
   3.348134791230000E-03   3.405366482780000E-03   3.463576470230000E-03
   3.522781476170000E-03   3.582998509070000E-03   3.644244868100000E-03
   3.706538148160000E-03   3.769896244910000E-03   3.834337359900000E-03
   3.899880005810000E-03   3.966543011790000E-03   4.034345528810000E-03
   4.103307035240000E-03   4.173447342380000E-03   4.244786600170000E-03
   4.317345303020000E-03   4.391144295630000E-03   4.466204779030000E-03
   4.542548316630000E-03   4.620196840460000E-03   4.699172657440000E-03
   4.779498455790000E-03   4.861197311550000E-03   4.944292695240000E-03
   5.028808478550000E-03   5.114768941210000E-03   5.202198778020000E-03
   5.291123105870000E-03   5.381567471010000E-03   5.473557856330000E-03
   5.567120688920000E-03   5.662282847540000E-03   5.759071670460000E-03
   5.857514963230000E-03   5.957641006700000E-03   6.059478565150000E-03
   6.163056894530000E-03   6.268405750890000E-03   6.375555398930000E-03
   6.484536620670000E-03   6.595380724290000E-03   6.708119553170000E-03
   6.822785494990000E-03   6.939411491050000E-03   7.058031045750000E-03
   7.178678236200000E-03   7.301387721980000E-03   7.426194755180000E-03
   7.553135190420000E-03   7.682245495240000E-03   7.813562760530000E-03
   7.947124711210000E-03   8.082969717039999E-03   8.221136803649999E-03
   8.361665663770000E-03   8.504596668640001E-03   8.649970879559999E-03