<UPF version="2.0.1">
  <PP_INFO>
    Generated by new atomic code, or converted to UPF format
    Author: 
    Generation date: 
    Pseudopotential type: US
    Element: Os
    Functional: SLA  PZ   NOGX NOGC
    Suggested minimum cutoff for wavefunctions:   0. Ry
    Suggested minimum cutoff for charge density:   0. Ry
    The Pseudo was generated with a Non-Relativistic Calculation
    L component and cutoff radius for Local Potential:  0   0.0000
    Valence configuration: 
    nl pn  l   occ       Rcut    Rcut US       E pseu
    5S  1  0  2.00      0.000      0.000     0.000000
    5P  2  1  6.00      0.000      0.000     0.000000
    5D  3  2  5.50      0.000      0.000     0.000000
    6S  1  0  2.00      0.000      0.000     0.000000
    6P  2  1  0.00      0.000      0.000     0.000000
    Generation configuration: not available.
  </PP_INFO>
    <!-- END OF HUMAN READABLE SECTION -->
  <PP_HEADER generated="Generated by new atomic code, or converted to UPF format" author="" date="" comment="" element="Os" pseudo_type="US" relativistic="no" is_ultrasoft="true" is_paw="false" is_coulomb="false" has_so="false" has_wfc="false" has_gipaw="false" paw_as_gipaw="false" core_correction="true" functional="SLA  PZ   NOGX NOGC" z_valence="16.000000000000000" total_psenergy="-197.54490653600001" wfc_cutoff="0.0000000000000000" rho_cutoff="0.0000000000000000" l_max="3" l_max_rho="0" l_local="0" mesh_size="983" number_of_wfc="5" number_of_proj="8"/>
  <PP_MESH>
    <PP_R>
   0.000000000000000E+00   2.016498629790000E-07   4.066887201770000E-07
   6.151735281510000E-07   8.271622006890000E-07   1.042713624900000E-06
   1.261887677550000E-06   1.484745241750000E-06   1.711348223800000E-06
   1.941759570440000E-06   2.176043286290000E-06   2.414264451670000E-06
   2.656489240660000E-06   2.902784939490000E-06   3.153219965200000E-06
   3.407863884690000E-06   3.666787434030000E-06   3.930062538080000E-06
   4.197762330510000E-06   4.469961174100000E-06   4.746734681390000E-06
   5.028159735680000E-06   5.314314512410000E-06   5.605278500860000E-06
   5.901132526230000E-06   6.201958772100000E-06   6.507840803240000E-06
   6.818863588860000E-06   7.135113526170000E-06   7.456678464410000E-06
   7.783647729250000E-06   8.116112147580000E-06   8.454164072760001E-06
   8.797897410289999E-06   9.147407643850000E-06   9.502791861860000E-06
   9.864148784470000E-06   1.023157879090000E-05   1.060518394740000E-05
   1.098506803560000E-05   1.137133658130000E-05   1.176409688380000E-05
   1.216345804570000E-05   1.256953100330000E-05   1.298242855710000E-05
   1.340226540360000E-05   1.382915816690000E-05   1.426322543100000E-05
   1.470458777290000E-05   1.515336779620000E-05   1.560969016480000E-05
   1.607368163790000E-05   1.654547110500000E-05   1.702518962180000E-05
   1.751297044650000E-05   1.800894907680000E-05   1.851326328790000E-05
   1.902605317020000E-05   1.954746116870000E-05   2.007763212230000E-05
   2.061671330410000E-05   2.116485446230000E-05   2.172220786200000E-05
   2.228892832700000E-05   2.286517328340000E-05   2.345110280290000E-05
   2.404687964760000E-05   2.465266931460000E-05   2.526864008300000E-05
   2.589496305970000E-05   2.653181222720000E-05   2.717936449220000E-05
   2.783779973450000E-05   2.850730085700000E-05   2.918805383660000E-05
   2.988024777570000E-05   3.058407495480000E-05   3.129973088610000E-05
   3.202741436730000E-05   3.276732753760000E-05   3.351967593300000E-05
   3.428466854420000E-05   3.506251787390000E-05   3.585343999640000E-05
   3.665765461750000E-05   3.747538513510000E-05   3.830685870210000E-05
   3.915230628840000E-05   4.001196274630000E-05   4.088606687460000E-05
   4.177486148570000E-05   4.267859347260000E-05   4.359751387790000E-05
   4.453187796310000E-05   4.548194527990000E-05   4.644797974180000E-05
   4.743024969810000E-05   4.842902800780000E-05   4.944459211580000E-05
   5.047722412970000E-05   5.152721089840000E-05   5.259484409160000E-05
   5.368042028100000E-05   5.478424102250000E-05   5.590661294010000E-05
   5.704784781090000E-05   5.820826265200000E-05   5.938817980830000E-05
   6.058792704220000E-05   6.180783762450001E-05   6.304825042700000E-05
   6.430951001689999E-05   6.559196675220000E-05   6.689597687909999E-05
   6.822190263110000E-05   6.957011232920000E-05   7.094098048500000E-05
   7.233488790400000E-05   7.375222179150000E-05   7.519337586060001E-05
   7.665875044120000E-05   7.814875259110001E-05   7.966379620940001E-05
   8.120430215130000E-05   8.277069834500000E-05   8.436341991069999E-05
   8.598290928119999E-05   8.762961632510000E-05   8.930399847170000E-05
   9.100652083780000E-05   9.273765635730000E-05   9.449788591220000E-05
   9.628769846670000E-05   9.810759120220000E-05   9.995806965630000E-05
   1.018396478630000E-04   1.037528484940000E-04   1.056982030070000E-04
   1.076762517910000E-04   1.096875443170000E-04   1.117326392890000E-04
   1.138121048020000E-04   1.159265185010000E-04   1.180764677340000E-04
   1.202625497250000E-04   1.224853717310000E-04   1.247455512190000E-04
   1.270437160300000E-04   1.293805045580000E-04   1.317565659260000E-04
   1.341725601670000E-04   1.366291584050000E-04   1.391270430440000E-04
   1.416669079580000E-04   1.442494586810000E-04   1.468754126050000E-04
   1.495454991780000E-04   1.522604601080000E-04   1.550210495680000E-04
   1.578280344070000E-04   1.606821943600000E-04   1.635843222690000E-04
   1.665352242980000E-04   1.695357201610000E-04   1.725866433500000E-04
   1.756888413610000E-04   1.788431759370000E-04   1.820505233020000E-04
   1.853117744070000E-04   1.886278351750000E-04   1.919996267560000E-04
   1.954280857800000E-04   1.989141646200000E-04   2.024588316520000E-04
   2.060630715290000E-04   2.097278854530000E-04   2.134542914500000E-04
   2.172433246570000E-04   2.210960376080000E-04   2.250135005270000E-04
   2.289968016210000E-04   2.330470473890000E-04   2.371653629260000E-04
   2.413528922350000E-04   2.456107985440000E-04   2.499402646340000E-04
   2.543424931610000E-04   2.588187069950000E-04   2.633701495580000E-04
   2.679980851690000E-04   2.727037993940000E-04   2.774885994070000E-04
   2.823538143500000E-04   2.873007957030000E-04   2.923309176590000E-04
   2.974455775060000E-04   3.026461960160000E-04   3.079342178400000E-04
   3.133111119050000E-04   3.187783718280000E-04   3.243375163280000E-04
   3.299900896470000E-04   3.357376619810000E-04   3.415818299150000E-04
   3.475242168650000E-04   3.535664735340000E-04   3.597102783650000E-04
   3.659573380090000E-04   3.723093878020000E-04   3.787681922420000E-04
   3.853355454840000E-04   3.920132718340000E-04   3.988032262590000E-04
   4.057072949010000E-04   4.127273956030000E-04   4.198654784360000E-04
   4.271235262470000E-04   4.345035552080000E-04   4.420076153740000E-04
   4.496377912540000E-04   4.573962023910000E-04   4.652850039490000E-04
   4.733063873120000E-04   4.814625806940000E-04   4.897558497560000E-04
   4.981884982390000E-04   5.067628685980000E-04   5.154813426580000E-04
   5.243463422740000E-04   5.333603300020000E-04   5.425258097859999E-04
   5.518453276510000E-04   5.613214724130000E-04   5.709568763940000E-04
   5.807542161580000E-04   5.907162132510000E-04   6.008456349580000E-04
   6.111452950740000E-04   6.216180546790000E-04   6.322668229430000E-04
   6.430945579250000E-04   6.541042673980000E-04   6.652990096860000E-04
   6.766818945120000E-04   6.882560838600000E-04   7.000247928590000E-04
   7.119912906690000E-04   7.241589013950000E-04   7.365310050070000E-04
   7.491110382800001E-04   7.619024957480000E-04   7.749089306770000E-04
   7.881339560480000E-04   8.015812455650000E-04   8.152545346730000E-04
   8.291576215940000E-04   8.432943683880000E-04   8.576687020190000E-04
   8.722846154500000E-04   8.871461687510001E-04   9.022574902270000E-04
   9.176227775640000E-04   9.332462989970000E-04   9.491323944930000E-04
   9.652854769580000E-04   9.817100334630000E-04   9.984106264919999E-04
   1.015391895210000E-03   1.032658556730000E-03   1.050215407470000E-03
   1.068067324450000E-03   1.086219266640000E-03   1.104676276370000E-03
   1.123443480710000E-03   1.142526092880000E-03   1.161929413730000E-03
   1.181658833210000E-03   1.201719831830000E-03   1.222117982210000E-03
   1.242858950660000E-03   1.263948498670000E-03   1.285392484590000E-03
   1.307196865230000E-03   1.329367697490000E-03   1.351911140080000E-03
   1.374833455210000E-03   1.398141010350000E-03   1.421840279960000E-03
   1.445937847330000E-03   1.470440406370000E-03   1.495354763510000E-03
   1.520687839580000E-03   1.546446671690000E-03   1.572638415240000E-03
   1.599270345890000E-03   1.626349861560000E-03   1.653884484520000E-03
   1.681881863450000E-03   1.710349775580000E-03   1.739296128850000E-03
   1.768728964090000E-03   1.798656457290000E-03   1.829086921830000E-03
   1.860028810800000E-03   1.891490719390000E-03   1.923481387200000E-03
   1.956009700750000E-03   1.989084695880000E-03   2.022715560310000E-03
   2.056911636160000E-03   2.091682422550000E-03   2.127037578270000E-03
   2.162986924420000E-03   2.199540447160000E-03   2.236708300470000E-03
   2.274500809010000E-03   2.312928470930000E-03   2.352001960840000E-03
   2.391732132730000E-03   2.432130023010000E-03   2.473206853580000E-03
   2.514974034940000E-03   2.557443169340000E-03   2.600626054050000E-03
   2.644534684590000E-03   2.689181258080000E-03   2.734578176640000E-03
   2.780738050810000E-03   2.827673703070000E-03   2.875398171410000E-03
   2.923924712930000E-03   2.973266807550000E-03   3.023438161700000E-03
   3.074452712210000E-03   3.126324630120000E-03   3.179068324610000E-03
   3.232698447050000E-03   3.287229895060000E-03   3.342677816590000E-03
   3.399057614210000E-03   3.456384949340000E-03   3.514675746610000E-03
   3.573946198270000E-03   3.634212768720000E-03   3.695492199070000E-03
   3.757801511770000E-03   3.821158015370000E-03   3.885579309290000E-03
   3.951083288770000E-03   4.017688149770000E-03   4.085412394070000E-03
   4.154274834390000E-03   4.224294599630000E-03   4.295491140190000E-03
   4.367884233320000E-03   4.441493988700000E-03   4.516340853950000E-03
   4.592445620340000E-03   4.669829428580000E-03   4.748513774660000E-03
   4.828520515870000E-03   4.909871876800000E-03   4.992590455580000E-03
   5.076699230120000E-03   5.162221564510000E-03   5.249181215520000E-03
   5.337602339150000E-03   5.427509497390000E-03   5.518927665040000E-03
   5.611882236620000E-03   5.706399033440000E-03   5.802504310780000E-03
   5.900224765150000E-03   5.999587541770000E-03   6.100620242040000E-03
   6.203350931260000E-03   6.307808146370000E-03   6.414020903960000E-03
   6.522018708230000E-03   6.631831559290000E-03   6.743489961410000E-03
   6.857024931520000E-03   6.972468007850000E-03   7.089851258660000E-03
   7.209207291160000E-03   7.330569260590000E-03   7.453970879360000E-03
   7.579446426510000E-03   7.707030757160000E-03   7.836759312229999E-03
   7.968668128250001E-03   8.102793847419999E-03   8.239173727730000E-03
   8.377845653370001E-03   8.518848145209999E-03   8.662220371510000E-03
   8.808002158819999E-03   8.956234003000000E-03   9.106957080540001E-03
   9.260213259910000E-03   9.416045113270001E-03   9.574495928230000E-03
   9.735609719950000E-03   9.899431243280001E-03   1.006600600530000E-02
   1.023538027770000E-02   1.040760111010000E-02   1.058271634280000E-02
   1.076077461990000E-02   1.094182540320000E-02   1.112591898590000E-02
   1.131310650600000E-02   1.150343996150000E-02   1.169697222400000E-02
   1.189375705360000E-02   1.209384911400000E-02   1.229730398770000E-02
   1.250417819130000E-02   1.271452919100000E-02   1.292841541920000E-02
   1.314589628990000E-02   1.336703221610000E-02   1.359188462560000E-02
   1.382051597910000E-02   1.405298978660000E-02   1.428937062570000E-02
   1.452972415930000E-02   1.477411715380000E-02   1.502261749780000E-02
   1.527529422060000E-02   1.553221751180000E-02   1.579345874080000E-02
   1.605909047620000E-02   1.632918650640000E-02   1.660382185960000E-02
   1.688307282530000E-02   1.716701697500000E-02   1.745573318390000E-02
   1.774930165280000E-02   1.804780393030000E-02   1.835132293580000E-02
   1.865994298190000E-02   1.897374979850000E-02   1.929283055620000E-02
   1.961727389050000E-02   1.994716992660000E-02   2.028261030450000E-02
   2.062368820430000E-02   2.097049837190000E-02   2.132313714570000E-02
   2.168170248330000E-02   2.204629398850000E-02   2.241701293890000E-02
   2.279396231450000E-02   2.317724682580000E-02   2.356697294330000E-02
   2.396324892660000E-02   2.436618485510000E-02   2.477589265790000E-02
   2.519248614540000E-02   2.561608104060000E-02   2.604679501170000E-02
   2.648474770400000E-02   2.693006077400000E-02   2.738285792250000E-02
   2.784326492960000E-02   2.831140968890000E-02   2.878742224370000E-02
   2.927143482270000E-02   2.976358187710000E-02   3.026400011750000E-02
   3.077282855210000E-02   3.129020852550000E-02   3.181628375770000E-02
   3.235120038410000E-02   3.289510699600000E-02   3.344815468210000E-02
   3.401049707040000E-02   3.458229037060000E-02   3.516369341800000E-02
   3.575486771700000E-02   3.635597748670000E-02   3.696718970570000E-02
   3.758867415920000E-02   3.822060348570000E-02   3.886315322530000E-02
   3.951650186820000E-02   4.018083090410000E-02   4.085632487340000E-02
   4.154317141740000E-02   4.224156133140000E-02   4.295168861710000E-02
   4.367375053650000E-02   4.440794766700000E-02   4.515448395720000E-02
   4.591356678280000E-02   4.668540700530000E-02   4.747021902950000E-02
   4.826822086390000E-02   4.907963418070000E-02   4.990468437790000E-02
   5.074360064120000E-02   5.159661600840000E-02   5.246396743370000E-02
   5.334589585370000E-02   5.424264625400000E-02   5.515446773780000E-02
   5.608161359480000E-02   5.702434137130000E-02   5.798291294230000E-02
   5.895759458380000E-02   5.994865704710000E-02   6.095637563350000E-02
   6.198103027140000E-02   6.302290559370000E-02   6.408229101680001E-02
   6.515948082140000E-02   6.625477423380000E-02   6.736847550910000E-02
   6.850089401600000E-02   6.965234432240000E-02   7.082314628319999E-02
   7.201362512840000E-02   7.322411155450000E-02   7.445494181539999E-02
   7.570645781630000E-02   7.697900720860000E-02   7.827294348640000E-02
   7.958862608480000E-02   8.092642047970000E-02   8.228669828910000E-02
   8.366983737680000E-02   8.507622195700000E-02   8.650624270109999E-02
   8.796029684620001E-02   8.943878830580000E-02   9.094212778120001E-02
   9.247073287660000E-02   9.402502821430000E-02   9.560544555290000E-02
   9.721242390739999E-02   9.884640967110001E-02   1.005078567390000E-01
   1.021972266360000E-01   1.039149886410000E-01   1.056616199220000E-01
   1.074376056660000E-01   1.092434392120000E-01   1.110796221940000E-01
   1.129466646740000E-01   1.148450852860000E-01   1.167754113830000E-01
   1.187381791770000E-01   1.207339338960000E-01   1.227632299280000E-01
   1.248266309790000E-01   1.269247102300000E-01   1.290580504940000E-01
   1.312272443800000E-01   1.334328944540000E-01   1.356756134130000E-01
   1.379560242470000E-01   1.402747604190000E-01   1.426324660370000E-01
   1.450297960350000E-01   1.474674163530000E-01   1.499460041230000E-01
   1.524662478590000E-01   1.550288476430000E-01   1.576345153260000E-01
   1.602839747200000E-01   1.629779618050000E-01   1.657172249270000E-01
   1.685025250090000E-01   1.713346357650000E-01   1.742143439100000E-01
   1.771424493820000E-01   1.801197655620000E-01   1.831471195010000E-01
   1.862253521500000E-01   1.893553185950000E-01   1.925378882890000E-01
   1.957739453010000E-01   1.990643885570000E-01   2.024101320890000E-01
   2.058121052920000E-01   2.092712531810000E-01   2.127885366520000E-01
   2.163649327520000E-01   2.200014349450000E-01   2.236990533960000E-01
   2.274588152450000E-01   2.312817648930000E-01   2.351689642960000E-01
   2.391214932560000E-01   2.431404497240000E-01   2.472269501020000E-01
   2.513821295560000E-01   2.556071423290000E-01   2.599031620610000E-01
   2.642713821210000E-01   2.687130159310000E-01   2.732292973050000E-01
   2.778214807970000E-01   2.824908420420000E-01   2.872386781140000E-01
   2.920663078880000E-01   2.969750724030000E-01   3.019663352360000E-01
   3.070414828810000E-01   3.122019251350000E-01   3.174490954860000E-01
   3.227844515150000E-01   3.282094753010000E-01   3.337256738280000E-01
   3.393345794110000E-01   3.450377501140000E-01   3.508367701880000E-01
   3.567332505090000E-01   3.627288290270000E-01   3.688251712180000E-01
   3.750239705500000E-01   3.813269489520000E-01   3.877358572910000E-01
   3.942524758610000E-01   4.008786148760000E-01   4.076161149720000E-01
   4.144668477210000E-01   4.214327161480000E-01   4.285156552610000E-01
   4.357176325890000E-01   4.430406487270000E-01   4.504867378940000E-01
   4.580579684950000E-01   4.657564437000000E-01   4.735843020220000E-01
   4.815437179170000E-01   4.896369023860000E-01   4.978661035870000E-01
   5.062336074610000E-01   5.147417383710000E-01   5.233928597390000E-01
   5.321893747120000E-01   5.411337268210000E-01   5.502284006670000E-01
   5.594759226070000E-01   5.688788614550000E-01   5.784398292000000E-01
   5.881614817280000E-01   5.980465195600000E-01   6.080976886040000E-01
   6.183177809160000E-01   6.287096354760000E-01   6.392761389760000E-01
   6.500202266260000E-01   6.609448829620000E-01   6.720531426820000E-01
   6.833480914850000E-01   6.948328669290000E-01   7.065106593040000E-01
   7.183847125160000E-01   7.304583249880000E-01   7.427348505810000E-01
   7.552176995190000E-01   7.679103393409999E-01   7.808162958610000E-01
   7.939391541500000E-01   8.072825595310000E-01   8.208502185910000E-01
   8.346459002130000E-01   8.486734366170000E-01   8.629367244330000E-01
   8.774397257760000E-01   8.921864693510000E-01   9.071810515710000E-01
   9.224276376940000E-01   9.379304629800000E-01   9.536938338700000E-01
   9.697221291790000E-01   9.860198013150000E-01   1.002591377510000E+00
   1.019441461100000E+00   1.036574732750000E+00   1.053995951830000E+00
   1.071709957670000E+00   1.089721670950000E+00   1.108036095030000E+00
   1.126658317370000E+00   1.145593510940000E+00   1.164846935620000E+00
   1.184423939720000E+00   1.204329961420000E+00   1.224570530290000E+00
   1.245151268850000E+00   1.266077894110000E+00   1.287356219140000E+00
   1.308992154740000E+00   1.330991711010000E+00   1.353360999100000E+00
   1.376106232830000E+00   1.399233730480000E+00   1.422749916490000E+00
   1.446661323290000E+00   1.470974593100000E+00   1.495696479750000E+00
   1.520833850600000E+00   1.546393688400000E+00   1.572383093280000E+00
   1.598809284690000E+00   1.625679603410000E+00   1.653001513570000E+00
   1.680782604790000E+00   1.709030594200000E+00   1.737753328660000E+00
   1.766958786880000E+00   1.796655081680000E+00   1.826850462230000E+00
   1.857553316310000E+00   1.888772172700000E+00   1.920515703510000E+00
   1.952792726590000E+00   1.985612207980000E+00   2.018983264410000E+00
   2.052915165850000E+00   2.087417338030000E+00   2.122499365120000E+00
   2.158170992340000E+00   2.194442128720000E+00   2.231322849800000E+00
   2.268823400460000E+00   2.306954197770000E+00   2.345725833850000E+00
   2.385149078860000E+00   2.425234883950000E+00   2.465994384320000E+00
   2.507438902320000E+00   2.549579950590000E+00   2.592429235240000E+00
   2.635998659120000E+00   2.680300325130000E+00   2.725346539580000E+00
   2.771149815590000E+00   2.817722876590000E+00   2.865078659840000E+00
   2.913230320030000E+00   2.962191232930000E+00   3.011974999110000E+00
   3.062595447710000E+00   3.114066640290000E+00   3.166402874740000E+00
   3.219618689240000E+00   3.273728866300000E+00   3.328748436870000E+00
   3.384692684520000E+00   3.441577149690000E+00   3.499417633960000E+00
   3.558230204530000E+00   3.618031198590000E+00   3.678837227910000E+00
   3.740665183450000E+00   3.803532240030000E+00   3.867455861140000E+00
   3.932453803750000E+00   3.998544123260000E+00   4.065745178500000E+00
   4.134075636890000E+00   4.203554479540000E+00   4.274201006570000E+00
   4.346034842470000E+00   4.419075941550000E+00   4.493344593480000E+00
   4.568861428900000E+00   4.645647425220000E+00   4.723723912350000E+00
   4.803112578730000E+00   4.883835477260000E+00   4.965915031490000E+00
   5.049374041830000E+00   5.134235691870000E+00   5.220523554840000E+00
   5.308261600140000E+00   5.397474200020000E+00   5.488186136330000E+00
   5.580422607410000E+00   5.674209235090000E+00   5.769572071830000E+00
   5.866537607900000E+00   5.965132778810000E+00   6.065384972740000E+00
   6.167322038160000E+00   6.270972291590000E+00   6.376364525410000E+00
   6.483528015940000E+00   6.592492531490000E+00   6.703288340700000E+00
   6.815946220870000E+00   6.930497466610000E+00   7.046973898420000E+00
   7.165407871630000E+00   7.285832285320000E+00   7.408280591500000E+00
   7.532786804360000E+00   7.659385509780000E+00   7.788111874860000E+00
   7.919001657760000E+00   8.052091217599999E+00   8.187417524560001E+00
   8.325018170140000E+00   8.464931377619999E+00   8.607196012699999E+00
   8.751851594240000E+00   8.898938305280000E+00   9.048497004170001E+00
   9.200569235970001E+00   9.355197243939999E+00   9.512423981300000E+00
   9.672293123159999E+00   9.834849078630000E+00   1.000013700320000E+01
   1.016820281120000E+01   1.033909318880000E+01   1.051285560640000E+01
   1.068953833270000E+01   1.086919044730000E+01   1.105186185460000E+01
   1.123760329790000E+01   1.142646637340000E+01   1.161850354400000E+01
   1.181376815480000E+01   1.201231444720000E+01   1.221419757420000E+01
   1.241947361570000E+01   1.262819959410000E+01   1.284043349030000E+01
   1.305623425950000E+01   1.327566184770000E+01   1.349877720850000E+01
   1.372564231970000E+01   1.395632020100000E+01   1.419087493090000E+01
   1.442937166510000E+01   1.467187665420000E+01   1.491845726230000E+01
   1.516918198550000E+01   1.542412047130000E+01   1.568334353750000E+01
   1.594692319220000E+01   1.621493265370000E+01   1.648744637070000E+01
   1.676454004330000E+01   1.704629064370000E+01   1.733277643780000E+01
   1.762407700670000E+01   1.792027326930000E+01   1.822144750410000E+01
   1.852768337270000E+01   1.883906594240000E+01   1.915568171040000E+01
   1.947761862770000E+01   1.980496612310000E+01   2.013781512870000E+01
   2.047625810470000E+01   2.082038906510000E+01   2.117030360420000E+01
   2.152609892260000E+01   2.188787385460000E+01   2.225572889570000E+01
   2.262976623020000E+01   2.301008975970000E+01   2.339680513200000E+01
   2.379001977070000E+01   2.418984290450000E+01   2.459638559800000E+01
   2.500976078230000E+01   2.543008328660000E+01   2.585746986970000E+01
   2.629203925290000E+01   2.673391215280000E+01   2.718321131460000E+01
   2.764006154660000E+01   2.810458975450000E+01   2.857692497690000E+01
   2.905719842110000E+01   2.954554349950000E+01   3.004209586670000E+01
   3.054699345700000E+01   3.106037652300000E+01   3.158238767440000E+01
   3.211317191770000E+01   3.265287669630000E+01   3.320165193180000E+01
   3.375965006520000E+01   3.432702609950000E+01   3.490393764300000E+01
   3.549054495250000E+01   3.608701097820000E+01   3.669350140900000E+01
   3.731018471830000E+01   3.793723221110000E+01   3.857481807130000E+01
   3.922311941000000E+01   3.988231631520000E+01   4.055259190140000E+01
   4.123413236060000E+01   4.192712701390000E+01   4.263176836430000E+01
   4.334825215000000E+01   4.407677739900000E+01   4.481754648400000E+01
   4.557076517890000E+01   4.633664271610000E+01   4.711539184420000E+01
   4.790722888750000E+01   4.871237380570000E+01   4.953105025550000E+01
   5.036348565210000E+01   5.120991123300000E+01   5.207056212190000E+01
   5.294567739400000E+01   5.383550014240000E+01   5.474027754600000E+01
   5.566026093750000E+01   5.659570587380000E+01   5.754687220680000E+01
   5.851402415550000E+01   5.949743037930000E+01   6.049736405310000E+01
   6.151410294250000E+01   6.254792948160000E+01   6.359913085110000E+01
   6.466799905809999E+01   6.575483101739999E+01   6.685992863360001E+01
   6.798359888540000E+01   6.912615391080000E+01   7.028791109340000E+01
   7.146919315110000E+01   7.267032822530000E+01   7.389164997230000E+01
   7.513349765620001E+01   7.639621624250000E+01   7.768015649460000E+01
   7.898567507080000E+01   8.031313462340000E+01   8.166290389990000E+01
   8.303535784480000E+01   8.443087770420000E+01   8.584985113130000E+01
   8.729267229470000E+01   8.875974198720000E+01   9.025146773770000E+01
   9.176826392400000E+01   9.331055188809999E+01   9.487876005330000E+01
   9.647332404310001E+01   9.809468680210000E+01   9.974329871920000E+01
   1.014196177530000E+02   1.031241095580000E+02   1.048572476160000E+02
   1.066195133640000E+02   1.084113963330000E+02   1.102333942790000E+02
   1.120860133250000E+02   1.139697680980000E+02   1.158851818760000E+02
   1.178327867320000E+02   1.198131236770000E+02   1.218267428200000E+02
   1.238742035120000E+02   1.259560745040000E+02   1.280729341080000E+02
   1.302253703530000E+02   1.324139811540000E+02   1.346393744710000E+02
   1.369021684830000E+02   1.392029917580000E+02   1.415424834300000E+02
   1.439212933720000E+02   1.463400823800000E+02   1.487995223550000E+02
   1.513002964900000E+02   1.538430994620000E+02
    </PP_R>
    <PP_RAB>
   1.999741152530000E-07   2.033349463030000E-07   2.067522605890000E-07
   2.102270073890000E-07   2.137601519310000E-07   2.173526756680000E-07
   2.210055765460000E-07   2.247198692820000E-07   2.284965856500000E-07
   2.323367747600000E-07   2.362415033580000E-07   2.402118561140000E-07
   2.442489359310000E-07   2.483538642450000E-07   2.525277813400000E-07
   2.567718466650000E-07   2.610872391540000E-07   2.654751575550000E-07
   2.699368207620000E-07   2.744734681550000E-07   2.790863599430000E-07
   2.837767775140000E-07   2.885460237930000E-07   2.933954236010000E-07
   2.983263240240000E-07   3.033400947880000E-07   3.084381286410000E-07
   3.136218417340000E-07   3.188926740230000E-07   3.242520896600000E-07
   3.297015774070000E-07   3.352426510460000E-07   3.408768497990000E-07
   3.466057387580000E-07   3.524309093170000E-07   3.583539796180000E-07
   3.643765949940000E-07   3.705004284350000E-07   3.767271810430000E-07
   3.830585825130000E-07   3.894963916080000E-07   3.960423966500000E-07
   4.026984160150000E-07   4.094662986410000E-07   4.163479245380000E-07
   4.233452053130000E-07   4.304600847010000E-07   4.376945391030000E-07
   4.450505781350000E-07   4.525302451900000E-07   4.601356180000000E-07
   4.678688092190000E-07   4.757319670040000E-07   4.837272756170000E-07
   4.918569560280000E-07   5.001232665330000E-07   5.085285033850000E-07
   5.170750014230000E-07   5.257651347320000E-07   5.346013172920000E-07
   5.435860036550000E-07   5.527216896260000E-07   5.620109129530000E-07
   5.714562540370000E-07   5.810603366440000E-07   5.908258286360000E-07
   6.007554427120000E-07   6.108519371640000E-07   6.211181166370001E-07
   6.315568329140000E-07   6.421709857060000E-07   6.529635234560000E-07
   6.639374441610000E-07   6.750957962040001E-07   6.864416791970000E-07
   6.979782448490000E-07   7.097086978340000E-07   7.216362966880000E-07
   7.337643547090000E-07   7.460962408800000E-07   7.586353808040000E-07
   7.713852576560000E-07   7.843494131510000E-07   7.975314485270000E-07
   8.109350255450000E-07   8.245638675060000E-07   8.384217602870000E-07
   8.525125533940000E-07   8.668401610250000E-07   8.814085631630000E-07
   8.962218066810000E-07   9.112840064630000E-07   9.265993465510000E-07
   9.421720813050001E-07   9.580065365840000E-07   9.741071109510000E-07
   9.904782768890001E-07   1.007124582050000E-06   1.024050650520000E-06
   1.041261184080000E-06   1.058760963560000E-06   1.076554850110000E-06
   1.094647786600000E-06   1.113044798960000E-06   1.131750997590000E-06
   1.150771578770000E-06   1.170111826120000E-06   1.189777112060000E-06
   1.209772899290000E-06   1.230104742330000E-06   1.250778289040000E-06
   1.271799282200000E-06   1.293173561120000E-06   1.314907063240000E-06
   1.337005825770000E-06   1.359475987410000E-06   1.382323790000000E-06
   1.405555580320000E-06   1.429177811780000E-06   1.453197046260000E-06
   1.477619955940000E-06   1.502453325100000E-06   1.527704052080000E-06
   1.553379151110000E-06   1.579485754340000E-06   1.606031113760000E-06
   1.633022603270000E-06   1.660467720670000E-06   1.688374089780000E-06
   1.716749462550000E-06   1.745601721210000E-06   1.774938880460000E-06
   1.804769089700000E-06   1.835100635290000E-06   1.865941942860000E-06
   1.897301579630000E-06   1.929188256820000E-06   1.961610832040000E-06
   1.994578311780000E-06   2.028099853860000E-06   2.062184770060000E-06
   2.096842528630000E-06   2.132082756930000E-06   2.167915244160000E-06
   2.204349944000000E-06   2.241396977440000E-06   2.279066635570000E-06
   2.317369382420000E-06   2.356315857890000E-06   2.395916880690000E-06
   2.436183451370000E-06   2.477126755330000E-06   2.518758165990000E-06
   2.561089247890000E-06   2.604131759940000E-06   2.647897658670000E-06
   2.692399101550000E-06   2.737648450380000E-06   2.783658274720000E-06
   2.830441355370000E-06   2.878010687930000E-06   2.926379486400000E-06
   2.975561186890000E-06   3.025569451280000E-06   3.076418171080000E-06
   3.128121471270000E-06   3.180693714210000E-06   3.234149503620000E-06
   3.288503688700000E-06   3.343771368170000E-06   3.399967894520000E-06
   3.457108878260000E-06   3.515210192250000E-06   3.574287976110000E-06
   3.634358640740000E-06   3.695438872800000E-06   3.757545639410000E-06
   3.820696192870000E-06   3.884908075390000E-06   3.950199124030000E-06
   4.016587475600000E-06   4.084091571740000E-06   4.152730164020000E-06
   4.222522319160000E-06   4.293487424320000E-06   4.365645192490000E-06