<UPF version="2.0.1">
  <PP_INFO>
    Generated by new atomic code, or converted to UPF format
    Author: 
    Generation date: 
    Pseudopotential type: US
    Element: P
    Functional:  SLA  PZ   NOGX NOGC
    Suggested minimum cutoff for wavefunctions:   0. Ry
    Suggested minimum cutoff for charge density:   0. Ry
    The Pseudo was generated with a Non-Relativistic Calculation
    L component and cutoff radius for Local Potential:  0   0.0000
    Valence configuration: 
    nl pn  l   occ       Rcut    Rcut US       E pseu
    3S  1  0  2.00      0.000      0.000     0.000000
    3P  2  1  3.00      0.000      0.000     0.000000
    Generation configuration: not available.
  </PP_INFO>
    <!-- END OF HUMAN READABLE SECTION -->
  <PP_HEADER generated="Generated by new atomic code, or converted to UPF format" author="" date="" comment="" element="P" pseudo_type="US" relativistic="no" is_ultrasoft="true" is_paw="false" is_coulomb="false" has_so="false" has_wfc="false" has_gipaw="false" paw_as_gipaw="false" core_correction="true" functional=" SLA  PZ   NOGX NOGC" z_valence="5.0000000000000000" total_psenergy="-15.118786440199999" wfc_cutoff="0.0000000000000000" rho_cutoff="0.0000000000000000" l_max="2" l_max_rho="0" l_local="0" mesh_size="903" number_of_wfc="2" number_of_proj="6"/>
  <PP_MESH>
    <PP_R>
   0.000000000000000E+00   1.021692639090000E-06   2.060556182230000E-06
   3.116879209300000E-06   4.190955150160000E-06   5.283082366140000E-06
   6.393564232930000E-06   7.522709224870000E-06   8.670831000590001E-06
   9.838248490209999E-06   1.102528598380000E-05   1.223227322180000E-05
   1.345954548600000E-05   1.470744369340000E-05   1.597631449030000E-05
   1.726651034910000E-05   1.857838966570000E-05   1.991231685960000E-05
   2.126866247460000E-05   2.264780328210000E-05   2.405012238570000E-05
   2.547600932740000E-05   2.692586019620000E-05   2.840007773770000E-05
   2.989907146620000E-05   3.142325777860000E-05   3.297306006980000E-05
   3.454890885020000E-05   3.615124186590000E-05   3.778050421970000E-05
   3.943714849490000E-05   4.112163488110000E-05   4.283443130200000E-05
   4.457601354540000E-05   4.634686539550000E-05   4.814747876680000E-05
   4.997835384130000E-05   5.183999920720000E-05   5.373293200020000E-05
   5.565767804710000E-05   5.761477201200000E-05   5.960475754460000E-05
   6.162818743160000E-05   6.368562374980000E-05   6.577763802250000E-05
   6.790481137820000E-05   7.006773471210000E-05   7.226700885020000E-05
   7.450324471610001E-05   7.677706350070001E-05   7.908909683510000E-05
   8.143998696550000E-05   8.383038693220000E-05   8.626096075049999E-05
   8.873238359540000E-05   9.124534198920000E-05   9.380053399190000E-05
   9.639866939570000E-05   9.904046992150000E-05   1.017266694200000E-04
   1.044580140740000E-04   1.072352626090000E-04   1.100591865010000E-04
   1.129305701900000E-04   1.158502113030000E-04   1.188189208680000E-04
   1.218375235480000E-04   1.249068578610000E-04   1.280277764210000E-04
   1.312011461690000E-04   1.344278486180000E-04   1.377087800940000E-04
   1.410448519880000E-04   1.444369910090000E-04   1.478861394390000E-04
   1.513932553970000E-04   1.549593131050000E-04   1.585853031560000E-04
   1.622722327940000E-04   1.660211261900000E-04   1.698330247270000E-04
   1.737089872910000E-04   1.776500905610000E-04   1.816574293150000E-04
   1.857321167290000E-04   1.898752846850000E-04   1.940880840900000E-04
   1.983716851950000E-04   2.027272779150000E-04   2.071560721650000E-04
   2.116592981940000E-04   2.162382069280000E-04   2.208940703150000E-04
   2.256281816800000E-04   2.304418560850000E-04   2.353364306920000E-04
   2.403132651370000E-04   2.453737419060000E-04   2.505192667200000E-04
   2.557512689240000E-04   2.610712018850000E-04   2.664805433970000E-04
   2.719807960900000E-04   2.775734878470000E-04   2.832601722300000E-04
   2.890424289080000E-04   2.949218641030000E-04   3.009001110290000E-04
   3.069788303470000E-04   3.131597106310000E-04   3.194444688300000E-04
   3.258348507530000E-04   3.323326315450000E-04   3.389396161880000E-04
   3.456576399970000E-04   3.524885691350000E-04   3.594343011240000E-04
   3.664967653800000E-04   3.736779237440000E-04   3.809797710270000E-04
   3.884043355690000E-04   3.959536797950000E-04   4.036299007940000E-04
   4.114351309000000E-04   4.193715382810000E-04   4.274413275470000E-04
   4.356467403580000E-04   4.439900560470000E-04   4.524735922560000E-04
   4.610997055780000E-04   4.698707922100000E-04   4.787892886220000E-04
   4.878576722310000E-04   4.970784620910000E-04   5.064542195920000E-04
   5.159875491710000E-04   5.256810990370000E-04   5.355375619040000E-04
   5.455596757430000E-04   5.557502245380000E-04   5.661120390630000E-04
   5.766479976660000E-04   5.873610270700000E-04   5.982541031860000E-04
   6.093302519390000E-04   6.205925501060000E-04   6.320441261780000E-04
   6.436881612200000E-04   6.555278897620000E-04   6.675666006940000E-04
   6.798076381790000E-04   6.922544025850000E-04   7.049103514250000E-04
   7.177790003230000E-04   7.308639239860000E-04   7.441687571990000E-04
   7.576971958340001E-04   7.714529978790000E-04   7.854399844780000E-04
   7.996620409950000E-04   8.141231180920000E-04   8.288272328290000E-04
   8.437784697760000E-04   8.589809821510000E-04   8.744389929720000E-04
   8.901567962300000E-04   9.061387580820000E-04   9.223893180650000E-04
   9.389129903280000E-04   9.557143648870000E-04   9.727981088970000E-04
   9.901689679529999E-04   1.007831767410000E-03   1.025791413700000E-03
   1.044052895750000E-03   1.062621286290000E-03   1.081501743340000E-03
   1.100699511600000E-03   1.120219923880000E-03   1.140068402670000E-03
   1.160250461550000E-03   1.180771706770000E-03   1.201637838830000E-03
   1.222854653990000E-03   1.244428045960000E-03   1.266364007480000E-03
   1.288668632020000E-03   1.311348115440000E-03   1.334408757760000E-03
   1.357856964850000E-03   1.381699250260000E-03   1.405942237000000E-03
   1.430592659370000E-03   1.455657364890000E-03   1.481143316140000E-03
   1.507057592700000E-03   1.533407393150000E-03   1.560200037060000E-03
   1.587442966990000E-03   1.615143750600000E-03   1.643310082730000E-03
   1.671949787550000E-03   1.701070820700000E-03   1.730681271570000E-03
   1.760789365450000E-03   1.791403465900000E-03   1.822532077050000E-03
   1.854183845910000E-03   1.886367564860000E-03   1.919092174030000E-03
   1.952366763780000E-03   1.986200577290000E-03   2.020603013050000E-03
   2.055583627500000E-03   2.091152137720000E-03   2.127318424070000E-03
   2.164092532980000E-03   2.201484679720000E-03   2.239505251230000E-03
   2.278164809020000E-03   2.317474092110000E-03   2.357444020010000E-03
   2.398085695710000E-03   2.439410408850000E-03   2.481429638770000E-03
   2.524155057740000E-03   2.567598534230000E-03   2.611772136130000E-03
   2.656688134190000E-03   2.702359005340000E-03   2.748797436250000E-03
   2.796016326770000E-03   2.844028793560000E-03   2.892848173730000E-03
   2.942488028530000E-03   2.992962147140000E-03   3.044284550460000E-03
   3.096469495040000E-03   3.149531477040000E-03   3.203485236250000E-03
   3.258345760150000E-03   3.314128288150000E-03   3.370848315740000E-03
   3.428521598860000E-03   3.487164158220000E-03   3.546792283820000E-03
   3.607422539390000E-03   3.669071767070000E-03   3.731757092040000E-03
   3.795495927290000E-03   3.860305978460000E-03   3.926205248760000E-03
   3.993212043980000E-03   4.061344977530000E-03   4.130622975670000E-03
   4.201065282740000E-03   4.272691466500000E-03   4.345521423560000E-03
   4.419575384950000E-03   4.494873921670000E-03   4.571437950480000E-03
   4.649288739660000E-03   4.728447914920000E-03   4.808937465430000E-03
   4.890779749920000E-03   4.973997502880000E-03   5.058613840890000E-03
   5.144652269040000E-03   5.232136687430000E-03   5.321091397870000E-03
   5.411541110560000E-03   5.503510951000000E-03   5.597026466960000E-03
   5.692113635590000E-03   5.788798870580000E-03   5.887109029580000E-03
   5.987071421590000E-03   6.088713814590000E-03   6.192064443220000E-03
   6.297152016670000E-03   6.404005726590000E-03   6.512655255270000E-03
   6.623130783820000E-03   6.735463000600000E-03   6.849683109730000E-03
   6.965822839750000E-03   7.083914452450000E-03   7.203990751810000E-03
   7.326085093120000E-03   7.450231392270000E-03   7.576464135140000E-03
   7.704818387200000E-03   7.835329803219999E-03   7.968034637210001E-03
   8.102969752500000E-03   8.240172631900000E-03   8.379681388240001E-03
   8.521534774820001E-03   8.665772196280000E-03   8.812433719499999E-03
   8.961560084740000E-03   9.113192716940000E-03   9.267373737250000E-03
   9.424145974730000E-03   9.583552978230001E-03   9.745639028490001E-03
   9.910449150469999E-03   1.007802912580000E-02   1.024842550560000E-02
   1.042168562320000E-02   1.059785760760000E-02   1.077699039660000E-02
   1.095913375040000E-02   1.114433826560000E-02   1.133265538910000E-02
   1.152413743230000E-02   1.171883758610000E-02   1.191680993490000E-02
   1.211810947250000E-02   1.232279211660000E-02   1.253091472480000E-02
   1.274253511030000E-02   1.295771205800000E-02   1.317650534050000E-02
   1.339897573530000E-02   1.362518504100000E-02   1.385519609500000E-02
   1.408907279070000E-02   1.432688009550000E-02   1.456868406850000E-02
   1.481455187890000E-02   1.506455182490000E-02   1.531875335260000E-02
   1.557722707520000E-02   1.584004479260000E-02   1.610727951130000E-02
   1.637900546510000E-02   1.665529813500000E-02   1.693623427070000E-02
   1.722189191200000E-02   1.751235041000000E-02   1.780769044950000E-02
   1.810799407120000E-02   1.841334469490000E-02   1.872382714200000E-02
   1.903952765960000E-02   1.936053394450000E-02   1.968693516710000E-02
   2.001882199640000E-02   2.035628662550000E-02   2.069942279660000E-02
   2.104832582760000E-02   2.140309263810000E-02   2.176382177690000E-02
   2.213061344880000E-02   2.250356954270000E-02   2.288279366000000E-02
   2.326839114300000E-02   2.366046910480000E-02   2.405913645830000E-02
   2.446450394710000E-02   2.487668417580000E-02   2.529579164160000E-02
   2.572194276590000E-02   2.615525592690000E-02   2.659585149200000E-02
   2.704385185170000E-02   2.749938145340000E-02   2.796256683620000E-02
   2.843353666550000E-02   2.891242176940000E-02   2.939935517460000E-02
   2.989447214340000E-02   3.039791021160000E-02   3.090980922640000E-02
   3.143031138500000E-02   3.195956127490000E-02   3.249770591340000E-02
   3.304489478840000E-02   3.360127990040000E-02   3.416701580450000E-02
   3.474225965300000E-02   3.532717123980000E-02   3.592191304390000E-02
   3.652665027520000E-02   3.714155092030000E-02   3.776678578880000E-02
   3.840252856100000E-02   3.904895583630000E-02   3.970624718200000E-02
   4.037458518310000E-02   4.105415549360000E-02   4.174514688720000E-02
   4.244775131040000E-02   4.316216393570000E-02   4.388858321570000E-02
   4.462721093800000E-02   4.537825228190000E-02   4.614191587470000E-02
   4.691841385020000E-02   4.770796190720000E-02   4.851077936970000E-02
   4.932708924770000E-02   5.015711829930000E-02   5.100109709330000E-02
   5.185926007370000E-02   5.273184562470000E-02   5.361909613680000E-02
   5.452125807420000E-02   5.543858204310000E-02   5.637132286170000E-02
   5.731973963060000E-02   5.828409580520000E-02   5.926465926820000E-02
   6.026170240470000E-02   6.127550217760000E-02   6.230634020440000E-02
   6.335450283570000E-02   6.442028123440000E-02   6.550397145710000E-02
   6.660587453560000E-02   6.772629656140000E-02   6.886554876990000E-02
   7.002394762740000E-02   7.120181491880000E-02   7.239947783700000E-02
   7.361726907400000E-02   7.485552691279999E-02   7.611459532200000E-02
   7.739482405080000E-02   7.869656872670000E-02   8.002019095360000E-02
   8.136605841300000E-02   8.273454496550001E-02   8.412603075520000E-02
   8.554090231479999E-02   8.697955267330000E-02   8.844238146500000E-02
   8.992979504070001E-02   9.144220658040000E-02   9.298003620799999E-02
   9.454371110850000E-02   9.613366564600000E-02   9.775034148470001E-02
   9.939418771170000E-02   1.010656609620000E-01   1.027652255430000E-01
   1.044933535680000E-01   1.062505250840000E-01   1.080372282050000E-01
   1.098539592490000E-01   1.117012228750000E-01   1.135795322240000E-01
   1.154894090600000E-01   1.174313839180000E-01   1.194059962460000E-01
   1.214137945620000E-01   1.234553365990000E-01   1.255311894670000E-01
   1.276419298030000E-01   1.297881439390000E-01   1.319704280590000E-01
   1.341893883670000E-01   1.364456412550000E-01   1.387398134740000E-01
   1.410725423100000E-01   1.434444757570000E-01   1.458562727010000E-01
   1.483086031020000E-01   1.508021481770000E-01   1.533376005950000E-01
   1.559156646640000E-01   1.585370565290000E-01   1.612025043730000E-01
   1.639127486130000E-01   1.666685421130000E-01   1.694706503890000E-01
   1.723198518230000E-01   1.752169378780000E-01   1.781627133180000E-01
   1.811579964330000E-01   1.842036192660000E-01   1.873004278420000E-01
   1.904492824070000E-01   1.936510576610000E-01   1.969066430080000E-01
   2.002169427990000E-01   2.035828765810000E-01   2.070053793580000E-01
   2.104854018480000E-01   2.140239107460000E-01   2.176218889930000E-01
   2.212803360510000E-01   2.250002681800000E-01   2.287827187160000E-01
   2.326287383660000E-01   2.365393954930000E-01   2.405157764160000E-01
   2.445589857100000E-01   2.486701465160000E-01   2.528504008480000E-01
   2.571009099150000E-01   2.614228544430000E-01   2.658174349980000E-01
   2.702858723250000E-01   2.748294076870000E-01   2.794493032050000E-01
   2.841468422140000E-01   2.889233296150000E-01   2.937800922410000E-01
   2.987184792250000E-01   3.037398623720000E-01   3.088456365430000E-01
   3.140372200420000E-01   3.193160550080000E-01   3.246836078190000E-01
   3.301413694950000E-01   3.356908561180000E-01   3.413336092460000E-01
   3.470711963480000E-01   3.529052112340000E-01   3.588372745010000E-01
   3.648690339840000E-01   3.710021652100000E-01   3.772383718650000E-01
   3.835793862690000E-01   3.900269698570000E-01   3.965829136650000E-01
   4.032490388300000E-01   4.100271970970000E-01   4.169192713310000E-01
   4.239271760420000E-01   4.310528579150000E-01   4.382982963520000E-01
   4.456655040210000E-01   4.531565274160000E-01   4.607734474250000E-01
   4.685183799080000E-01   4.763934762860000E-01   4.844009241350000E-01
   4.925429477980000E-01   5.008218090000000E-01   5.092398074800000E-01
   5.177992816230000E-01   5.265026091160000E-01   5.353522076070000E-01
   5.443505353730000E-01   5.535000920100001E-01   5.628034191170000E-01
   5.722631010140000E-01   5.818817654500000E-01   5.916620843390000E-01
   6.016067744980000E-01   6.117185984050000E-01   6.220003649660000E-01
   6.324549302930000E-01   6.430851984980001E-01   6.538941225040000E-01
   6.648847048570000E-01   6.760599985680000E-01   6.874231079570000E-01
   6.989771895170001E-01   7.107254527900000E-01   7.226711612559999E-01
   7.348176332450000E-01   7.471682428560000E-01   7.597264208920000E-01
   7.724956558170000E-01   7.854794947230000E-01   7.986815443160000E-01
   8.121054719160000E-01   8.257550064780000E-01   8.396339396280000E-01
   8.537461267130000E-01   8.680954878770000E-01   8.826860091460000E-01
   8.975217435360000E-01   9.126068121790000E-01   9.279454054700000E-01
   9.435417842270000E-01   9.594002808790000E-01   9.755253006650000E-01
   9.919213228600000E-01   1.008592902020000E+00   1.025544669250000E+00
   1.042781333480000E+00   1.060307682790000E+00   1.078128585710000E+00
   1.096248992610000E+00   1.114673937060000E+00   1.133408537210000E+00
   1.152457997240000E+00   1.171827608790000E+00   1.191522752430000E+00
   1.211548899170000E+00   1.231911611940000E+00   1.252616547190000E+00
   1.273669456420000E+00   1.295076187800000E+00   1.316842687780000E+00
   1.338975002750000E+00   1.361479280720000E+00   1.384361773010000E+00
   1.407628836040000E+00   1.431286933010000E+00   1.455342635780000E+00
   1.479802626630000E+00   1.504673700170000E+00   1.529962765200000E+00
   1.555676846600000E+00   1.581823087350000E+00   1.608408750460000E+00
   1.635441221010000E+00   1.662928008190000E+00   1.690876747400000E+00
   1.719295202350000E+00   1.748191267240000E+00   1.777572968950000E+00
   1.807448469250000E+00   1.837826067070000E+00   1.868714200840000E+00
   1.900121450790000E+00   1.932056541360000E+00   1.964528343610000E+00
   1.997545877700000E+00   2.031118315370000E+00   2.065254982520000E+00
   2.099965361790000E+00   2.135259095150000E+00   2.171145986650000E+00
   2.207636005120000E+00   2.244739286880000E+00   2.282466138660000E+00
   2.320827040380000E+00   2.359832648080000E+00   2.399493796910000E+00
   2.439821504110000E+00   2.480826972090000E+00   2.522521591510000E+00
   2.564916944470000E+00   2.608024807750000E+00   2.651857156010000E+00
   2.696426165210000E+00   2.741744215890000E+00   2.787823896710000E+00
   2.834678007870000E+00   2.882319564700000E+00   2.930761801280000E+00
   2.980018174090000E+00   3.030102365770000E+00   3.081028288930000E+00
   3.132810089970000E+00   3.185462153080000E+00   3.238999104150000E+00
   3.293435814900000E+00   3.348787407010000E+00   3.405069256260000E+00
   3.462296996860000E+00   3.520486525770000E+00   3.579654007140000E+00
   3.639815876750000E+00   3.700988846610000E+00   3.763189909610000E+00
   3.826436344230000E+00   3.890745719330000E+00   3.956135899030000E+00
   4.022625047690000E+00   4.090231634960000E+00   4.158974440860000E+00
   4.228872561080000E+00   4.299945412190000E+00   4.372212737130000E+00
   4.445694610600000E+00   4.520411444710000E+00   4.596383994630000E+00
   4.673633364310000E+00   4.752181012430000E+00   4.832048758280000E+00
   4.913258787840000E+00   4.995833660000000E+00   5.079796312730000E+00
   5.165170069550000E+00   5.251978645940000E+00   5.340246155930000E+00
   5.429997118870000E+00   5.521256466140000E+00   5.614049548150000E+00
   5.708402141350000E+00   5.804340455410000E+00   5.901891140470000E+00
   6.001081294570000E+00   6.101938471170000E+00   6.204490686810000E+00
   6.308766428860000E+00   6.414794663490000E+00   6.522604843660000E+00
   6.632226917330000E+00   6.743691335790000E+00   6.857029062100000E+00
   6.972271579680000E+00   7.089450901080000E+00   7.208599576870000E+00
   7.329750704680000E+00   7.452937938360000E+00   7.578195497390000E+00
   7.705558176350000E+00   7.835061354560000E+00   7.966741005980000E+00
   8.100633709120000E+00   8.236776657260000E+00   8.375207668780000E+00
   8.515965197600000E+00   8.659088343970000E+00   8.804616865210001E+00
   8.952591186859999E+00   9.103052413860000E+00   9.256042341940001E+00
   9.411603469299999E+00   9.569779008359999E+00   9.730612897789999E+00
   9.894149814710000E+00   1.006043518710000E+01   1.022951520640000E+01
   1.040143684030000E+01   1.057624784600000E+01   1.075399678330000E+01
   1.093473302790000E+01   1.111850678550000E+01   1.130536910560000E+01
   1.149537189570000E+01   1.168856793530000E+01   1.188501089150000E+01
   1.208475533290000E+01   1.228785674530000E+01   1.249437154720000E+01
   1.270435710510000E+01   1.291787174970000E+01   1.313497479190000E+01
   1.335572653950000E+01   1.358018831400000E+01   1.380842246720000E+01
   1.404049239900000E+01   1.427646257470000E+01   1.451639854320000E+01
   1.476036695480000E+01   1.500843558020000E+01   1.526067332880000E+01
   1.551715026840000E+01   1.577793764410000E+01   1.604310789870000E+01
   1.631273469220000E+01   1.658689292260000E+01   1.686565874680000E+01
   1.714910960160000E+01   1.743732422510000E+01   1.773038267870000E+01
   1.802836636960000E+01   1.833135807280000E+01   1.863944195470000E+01
   1.895270359610000E+01   1.927123001620000E+01   1.959510969650000E+01
   1.992443260570000E+01   2.025929022450000E+01   2.059977557110000E+01
   2.094598322690000E+01   2.129800936300000E+01   2.165595176660000E+01
   2.201990986850000E+01   2.238998477050000E+01   2.276627927360000E+01
   2.314889790650000E+01   2.353794695440000E+01   2.393353448930000E+01
   2.433577039890000E+01   2.474476641810000E+01   2.516063615960000E+01
   2.558349514530000E+01   2.601346083880000E+01   2.645065267790000E+01
   2.689519210740000E+01   2.734720261340000E+01   2.780680975740000E+01
   2.827414121090000E+01   2.874932679110000E+01   2.923249849730000E+01
   2.972379054670000E+01   3.022333941270000E+01   3.073128386190000E+01
   3.124776499340000E+01   3.177292627740000E+01   3.230691359540000E+01
   3.284987528080000E+01   3.340196215960000E+01   3.396332759290000E+01
   3.453412751910000E+01   3.511452049750000E+01   3.570466775200000E+01
   3.630473321630000E+01   3.691488357900000E+01   3.753528833030000E+01
   3.816611980880000E+01   3.880755324950000E+01   3.945976683260000E+01
   4.012294173270000E+01   4.079726216920000E+01   4.148291545780000E+01
   4.218009206200000E+01   4.288898564660000E+01   4.360979313100000E+01
   4.434271474420000E+01   4.508795408010000E+01   4.584571815450000E+01
   4.661621746230000E+01   4.739966603600000E+01   4.819628150530000E+01
   4.900628515730000E+01   4.982990199840000E+01   5.066736081620000E+01
   5.151889424350000E+01   5.238473882300000E+01   5.326513507260000E+01
   5.416032755240000E+01   5.507056493270000E+01   5.599610006320000E+01
   5.693719004290000E+01   5.789409629180000E+01   5.886708462320000E+01
   5.985642531790000E+01   6.086239319920000E+01   6.188526770910000E+01
   6.292533298600000E+01   6.398287794350000E+01   6.505819635100001E+01
   6.615158691489999E+01   6.726335336180000E+01   6.839380452300000E+01
   6.954325441989999E+01   7.071202235150000E+01   7.190043298310000E+01
   7.310881643640001E+01   7.433750838130000E+01   7.558685012890000E+01
   7.685718872680000E+01   7.814887705480000E+01   7.946227392350001E+01
   8.079774417400000E+01   8.215565877880000E+01   8.353639494500000E+01
   8.494033621940000E+01   8.636787259470000E+01   8.781940061800000E+01
   8.929532350080000E+01   9.079605123120000E+01   9.232200068770000E+01
   9.387359575479999E+01   9.545126744130000E+01   9.705545399940000E+01
   9.868660104680001E+01   1.003451616900000E+02   1.020315966520000E+02
   1.037463743970000E+02   1.054899712630000E+02   1.072628715940000E+02
   1.090655678740000E+02   1.108985608630000E+02   1.127623597380000E+02
   1.146574822330000E+02   1.165844547820000E+02   1.185438126690000E+02
   1.205361001720000E+02   1.225618707160000E+02   1.246216870300000E+02
   1.267161212970000E+02   1.288457553190000E+02   1.310111806730000E+02
   1.332129988810000E+02   1.354518215740000E+02   1.377282706610000E+02
   1.400429785030000E+02   1.423965880890000E+02   1.447897532160000E+02
   1.472231386670000E+02   1.496974203980000E+02   1.522132857250000E+02
   1.547714335150000E+02   1.573725743830000E+02   1.600174308830000E+02
   1.627067377160000E+02   1.654412419280000E+02   1.682217031210000E+02
   1.710488936640000E+02   1.739235989040000E+02   1.768466173910000E+02
   1.798187610920000E+02   1.828408556230000E+02   1.859137404720000E+02
   1.890382692400000E+02   1.922153098700000E+02   1.954457448940000E+02
   1.987304716770000E+02   2.020704026640000E+02   2.054664656340000E+02
    </PP_R>
    <PP_RAB>
   1.013202183950000E-06   1.030230394600000E-06   1.047544786990000E-06
   1.065150170770000E-06   1.083051436450000E-06   1.101253556720000E-06
   1.119761587830000E-06   1.138580671030000E-06   1.157716033960000E-06
   1.177172992120000E-06   1.196956950350000E-06   1.217073404310000E-06
   1.237527942050000E-06   1.258326245510000E-06   1.279474092120000E-06
   1.300977356430000E-06   1.322842011710000E-06   1.345074131610000E-06
   1.367679891860000E-06   1.390665571980000E-06   1.414037557040000E-06
   1.437802339410000E-06   1.461966520550000E-06   1.486536812910000E-06
   1.511520041720000E-06   1.536923146930000E-06   1.562753185110000E-06
   1.589017331450000E-06   1.615722881720000E-06   1.642877254280000E-06
   1.670487992200000E-06   1.698562765300000E-06   1.727109372320000E-06
   1.756135743040000E-06   1.785649940540000E-06   1.815660163400000E-06
   1.846174747970000E-06   1.877202170740000E-06   1.908751050620000E-06
   1.940830151400000E-06   1.973448384150000E-06   2.006614809690000E-06
   2.040338641140000E-06   2.074629246450000E-06   2.109496150990000E-06
   2.144949040250000E-06   2.180997762490000E-06   2.217652331450000E-06
   2.254922929220000E-06   2.292819908960000E-06   2.331353797870000E-06
   2.370535300040000E-06   2.410375299490000E-06   2.450884863120000E-06
   2.492075243870000E-06   2.533957883770000E-06   2.576544417150000E-06
   2.619846673880000E-06   2.663876682640000E-06   2.708646674280000E-06
   2.754169085180000E-06   2.800456560770000E-06   2.847521958960000E-06
   2.895378353790000E-06   2.944039038990000E-06   2.993517531750000E-06
   3.043827576410000E-06   3.094983148300000E-06   3.146998457630000E-06
   3.199887953430000E-06   3.253666327580000E-06   3.308348518840000E-06
   3.363949717080000E-06   3.420485367430000E-06   3.477971174600000E-06
   3.536423107230000E-06   3.595857402360000E-06   3.656290569880000E-06
   3.717739397190000E-06   3.780220953790000E-06   3.843752596070000E-06
   3.908351972120000E-06   3.974037026630000E-06   4.040826005870000E-06
   4.108737462760000E-06   4.177790262030000E-06   4.248003585460000E-06
   4.319396937200000E-06   4.391990149190000E-06   4.465803386690000E-06
   4.540857153850000E-06   4.617172299410000E-06   4.694770022530000E-06
   4.773671878610000E-06   4.853899785360000E-06   4.935476028820000E-06
   5.018423269570000E-06   5.102764549060000E-06   5.188523295950000E-06
   5.275723332680000E-06   5.364388882030000E-06   5.454544573910000E-06
   5.546215452120000E-06   5.639426981400000E-06   5.734205054440000E-06
   5.830575999090000E-06   5.928566585670000E-06   6.028204034430000E-06
   6.129516023070000E-06   6.232530694460000E-06   6.337276664450000E-06
   6.443783029820000E-06   6.552079376360000E-06   6.662195787080000E-06
   6.774162850570000E-06   6.888011669530000E-06   7.003773869350000E-06
   7.121481606950000E-06   7.241167579680000E-06   7.362865034400000E-06
   7.486607776760000E-06   7.612430180530000E-06   7.740367197190000E-06
   7.870454365610001E-06   8.002727821970001E-06   8.137224309740001E-06
   8.273981189920000E-06   8.413036451399999E-06   8.554428721560001E-06
   8.698197276920000E-06   8.844382054120000E-06   8.993023660980000E-06
   9.144163387800000E-06   9.297843218800000E-06   9.454105843820001E-06
   9.612994670130001E-06   9.774553834560000E-06   9.938828215680000E-06
   1.010586344630000E-05   1.027570592620000E-05   1.044840283500000E-05
   1.062400214500000E-05   1.080255263510000E-05   1.098410390370000E-05
   1.116870638290000E-05   1.135641135240000E-05   1.154727095360000E-05
   1.174133820430000E-05   1.193866701330000E-05   1.213931219550000E-05
   1.234332948690000E-05   1.255077556040000E-05   1.276170804100000E-05
   1.297618552270000E-05   1.319426758370000E-05   1.341601480390000E-05
   1.364148878120000E-05   1.387075214860000E-05   1.410386859190000E-05
   1.434090286720000E-05   1.458192081880000E-05   1.482698939780000E-05
   1.507617668020000E-05   1.532955188650000E-05   1.558718540020000E-05
   1.584914878780000E-05   1.611551481860000E-05   1.638635748500000E-05
   1.666175202280000E-05   1.694177493210000E-05   1.722650399890000E-05
   1.751601831650000E-05   1.781039830740000E-05   1.810972574560000E-05
   1.841408377970000E-05   1.872355695550000E-05   1.903823123970000E-05
   1.935819404390000E-05   1.968353424870000E-05   2.001434222840000E-05
   2.035070987640000E-05   2.069273063010000E-05   2.104049949770000E-05
   2.139411308380000E-05   2.175366961660000E-05   2.211926897530000E-05
   2.249101271760000E-05   2.286900410800000E-05   2.325334814670000E-05
   2.364415159820000E-05   2.404152302170000E-05   2.444557280050000E-05
   2.485641317350000E-05   2.527415826550000E-05   2.569892411960000E-05
   2.613082872890000E-05   2.656999206980000E-05   2.701653613490000E-05
   2.747058496700000E-05   2.793226469390000E-05   2.840170356280000E-05
   2.887903197640000E-05   2.936438252900000E-05   2.985789004340000E-05
   3.035969160810000E-05   3.086992661570000E-05   3.138873680140000E-05
   3.191626628250000E-05   3.245266159830000E-05   3.299807175110000E-05
   3.355264824700000E-05   3.411654513880000E-05   3.468991906800000E-05
   3.527292930900000E-05   3.586573781260000E-05   3.646850925180000E-05
   3.708141106700000E-05   3.770461351260000E-05   3.833828970440000E-05
   3.898261566760000E-05   3.963777038580000E-05   4.030393585070000E-05
   4.098129711250000E-05   4.167004233140000E-05   4.237036283010000E-05
   4.308245314640000E-05   4.380651108780000E-05   4.454273778620000E-05
   4.529133775370000E-05   4.605251893970000E-05   4.682649278810000E-05
   4.761347429670000E-05   4.841368207660000E-05   4.922733841280000E-05
   5.005466932620000E-05   5.089590463620000E-05   5.175127802490000E-05
   5.262102710130000E-05   5.350539346800000E-05   5.440462278810000E-05
   5.531896485320000E-05   5.624867365310000E-05   5.719400744630000E-05
   5.815522883160000E-05   5.913260482100000E-05   6.012640691420000E-05
   6.113691117380000E-05   6.216439830180000E-05   6.320915371790001E-05
   6.427146763870000E-05   6.535163515830000E-05   6.644995633000000E-05
   6.756673625020000E-05   6.870228514280000E-05   6.985691844520000E-05
   7.103095689630001E-05   7.222472662560000E-05   7.343855924330000E-05
   7.467279193310000E-05   7.592776754509999E-05   7.720383469200001E-05
   7.850134784490001E-05   7.982066743260000E-05   8.116215994110000E-05
   8.252619801590000E-05   8.391316056530000E-05   8.532343286550000E-05
   8.675740666789999E-05   8.821548030790000E-05   8.969805881510000E-05
   9.120555402660001E-05   9.273838470059999E-05   9.429697663340000E-05