<UPF version="2.0.1">
  <PP_INFO>
    Generated by new atomic code, or converted to UPF format
    Author: 
    Generation date: 
    Pseudopotential type: US
    Element: Pb
    Functional: SLA  PZ   NOGX NOGC
    Suggested minimum cutoff for wavefunctions:   0. Ry
    Suggested minimum cutoff for charge density:   0. Ry
    The Pseudo was generated with a Non-Relativistic Calculation
    L component and cutoff radius for Local Potential:  0   0.0000
    Valence configuration: 
    nl pn  l   occ       Rcut    Rcut US       E pseu
    5D  3  2 10.00      0.000      0.000     0.000000
    6S  1  0  2.00      0.000      0.000     0.000000
    6P  2  1  2.00      0.000      0.000     0.000000
    Generation configuration: not available.
  </PP_INFO>
    <!-- END OF HUMAN READABLE SECTION -->
  <PP_HEADER generated="Generated by new atomic code, or converted to UPF format" author="" date="" comment="" element="Pb" pseudo_type="US" relativistic="no" is_ultrasoft="true" is_paw="false" is_coulomb="false" has_so="false" has_wfc="false" has_gipaw="false" paw_as_gipaw="false" core_correction="true" functional="SLA  PZ   NOGX NOGC" z_valence="14.000000000000000" total_psenergy="-163.71713694300001" wfc_cutoff="0.0000000000000000" rho_cutoff="0.0000000000000000" l_max="2" l_max_rho="0" l_local="0" mesh_size="899" number_of_wfc="3" number_of_proj="6"/>
  <PP_MESH>
    <PP_R>
   0.000000000000000E+00   6.978111141780000E-10   1.413287400820000E-09
   2.146876055880000E-09   2.899035596170000E-09   3.670236145870000E-09
   4.460959730430000E-09   5.271700577840000E-09   6.102965427510000E-09
   6.955273847050000E-09   7.829158556939999E-09   8.725165763600000E-09
   9.643855500680001E-09   1.058580197920000E-08   1.155159394630000E-08
   1.254183505350000E-08   1.355714423360000E-08   1.459815608810000E-08
   1.566552128300000E-08   1.675990695660000E-08   1.788199713530000E-08
   1.903249316220000E-08   2.021211413470000E-08   2.142159735420000E-08
   2.266169878730000E-08   2.393319353750000E-08   2.523687633060000E-08
   2.657356201080000E-08   2.794408605000000E-08   2.934930507050000E-08
   3.079009737990000E-08   3.226736352020000E-08   3.378202683090000E-08
   3.533503402580000E-08   3.692735578510000E-08   3.855998736160000E-08
   4.023394920330000E-08   4.195028759070000E-08   4.371007529130000E-08
   4.551441222960000E-08   4.736442617500000E-08   4.926127344630000E-08
   5.120613963500000E-08   5.320024034560000E-08   5.524482195610000E-08
   5.734116239640000E-08   5.949057194770000E-08   6.169439406079999E-08
   6.395400619630000E-08   6.627082068529999E-08   6.864628561240000E-08
   7.108188572039999E-08   7.357914333870000E-08   7.613961933460000E-08
   7.876491408890000E-08   8.145666849640001E-08   8.421656499110000E-08
   8.704632859810001E-08   8.994772801199999E-08   9.292257670170000E-08
   9.597273404450000E-08   9.910010648810000E-08   1.023066487420000E-07
   1.055943650000000E-07   1.089653101900000E-07   1.124215912650000E-07
   1.159653685120000E-07   1.195988569060000E-07   1.233243274980000E-07
   1.271441088260000E-07   1.310605883790000E-07   1.350762140840000E-07
   1.391934958380000E-07   1.434150070750000E-07   1.477433863790000E-07
   1.521813391260000E-07   1.567316391810000E-07   1.613971306310000E-07
   1.661807295600000E-07   1.710854258720000E-07   1.761142851620000E-07
   1.812704506310000E-07   1.865571450500000E-07   1.919776727760000E-07
   1.975354218150000E-07   2.032338659400000E-07   2.090765668650000E-07
   2.150671764680000E-07   2.212094390750000E-07   2.275071938010000E-07
   2.339643769460000E-07   2.405850244610000E-07   2.473732744660000E-07
   2.543333698380000E-07   2.614696608630000E-07   2.687866079550000E-07
   2.762887844450000E-07   2.839808794370000E-07   2.918677007410000E-07
   2.999541778770000E-07   3.082453651560000E-07   3.167464448400000E-07
   3.254627303810000E-07   3.343996697410000E-07   3.435628487980000E-07
   3.529579948370000E-07   3.625909801310000E-07   3.724678256080000E-07
   3.825947046190000E-07   3.929779467920000E-07   4.036240419930000E-07
   4.145396443770000E-07   4.257315765510000E-07   4.372068338360000E-07
   4.489725886430000E-07   4.610361949510000E-07   4.734051929060000E-07
   4.860873135360000E-07   4.990904835780000E-07   5.124228304360000E-07
   5.260926872620000E-07   5.401085981610000E-07   5.544793235340000E-07
   5.692138455520000E-07   5.843213737710000E-07   5.998113508870000E-07
   6.156934586410000E-07   6.319776238660000E-07   6.486740246980000E-07
   6.657930969280000E-07   6.833455405350000E-07   7.013423263680000E-07
   7.197947030030000E-07   7.387142037760000E-07   7.581126539920000E-07
   7.780021783130000E-07   7.983952083400000E-07   8.193044903790000E-07
   8.407430934140001E-07   8.627244172680000E-07   8.852622009840000E-07
   9.083705314120000E-07   9.320638520100000E-07   9.563569718740001E-07
   9.812650749960000E-07   1.006803729750000E-06   1.032988898630000E-06
   1.059836948210000E-06   1.087364659400000E-06   1.115589237930000E-06
   1.144528325050000E-06   1.174200008660000E-06   1.204622834510000E-06
   1.235815817870000E-06   1.267798455360000E-06   1.300590737170000E-06
   1.334213159550000E-06   1.368686737600000E-06   1.404033018440000E-06
   1.440274094640000E-06   1.477432618050000E-06   1.515531813950000E-06
   1.554595495590000E-06   1.594648079050000E-06   1.635714598480000E-06
   1.677820721790000E-06   1.720992766700000E-06   1.765257717120000E-06
   1.810643240100000E-06   1.857177703070000E-06   1.904890191570000E-06
   1.953810527470000E-06   2.003969287570000E-06   2.055397822730000E-06
   2.108128277450000E-06   2.162193609990000E-06   2.217627612930000E-06
   2.274464934350000E-06   2.332741099400000E-06   2.392492532600000E-06
   2.453756580530000E-06   2.516571535220000E-06   2.580976658060000E-06
   2.647012204340000E-06   2.714719448440000E-06   2.784140709580000E-06
   2.855319378310000E-06   2.928299943620000E-06   3.003128020740000E-06
   3.079850379650000E-06   3.158514974330000E-06   3.239170972690000E-06
   3.321868787380000E-06   3.406660107210000E-06   3.493597929530000E-06
   3.582736593290000E-06   3.674131813070000E-06   3.767840713860000E-06
   3.863921866760000E-06   3.962435325630000E-06   4.063442664580000E-06
   4.167007016490000E-06   4.273193112450000E-06   4.382067322230000E-06
   4.493697695760000E-06   4.608154005640000E-06   4.725507790800000E-06
   4.845832401180000E-06   4.969203043570000E-06   5.095696828640000E-06
   5.225392819130000E-06   5.358372079250000E-06   5.494717725360000E-06
   5.634514977940000E-06   5.777851214820000E-06   5.924816025810000E-06
   6.075501268700000E-06   6.230001126680000E-06   6.388412167180000E-06
   6.550833402270000E-06   6.717366350500000E-06   6.888115100380000E-06
   7.063186375450000E-06   7.242689600940000E-06   7.426736972230000E-06
   7.615443524900000E-06   7.808927206690000E-06   8.007308951209999E-06
   8.210712753500000E-06   8.419265747560000E-06   8.633098285800001E-06
   8.852344020520000E-06   9.077139987440000E-06   9.307626691350001E-06
   9.543948193950001E-06   9.786252203870000E-06   1.003469016900000E-05
   1.028941737120000E-05   1.055059302320000E-05   1.081838036830000E-05
   1.109294678230000E-05   1.137446387820000E-05   1.166310761330000E-05
   1.195905839930000E-05   1.226250121510000E-05   1.257362572240000E-05
   1.289262638420000E-05   1.321970258610000E-05   1.355505876140000E-05
   1.389890451880000E-05   1.425145477300000E-05   1.461292987930000E-05
   1.498355577150000E-05   1.536356410290000E-05   1.575319239100000E-05
   1.615268416610000E-05   1.656228912370000E-05   1.698226328010000E-05
   1.741286913290000E-05   1.785437582480000E-05   1.830705931180000E-05
   1.877120253590000E-05   1.924709560160000E-05   1.973503595760000E-05
   2.023532858250000E-05   2.074828617560000E-05   2.127422935190000E-05
   2.181348684310000E-05   2.236639570270000E-05   2.293330151670000E-05
   2.351455861980000E-05   2.411053031640000E-05   2.472158910840000E-05
   2.534811692730000E-05   2.599050537350000E-05   2.664915596070000E-05
   2.732448036680000E-05   2.801690069170000E-05   2.872684972050000E-05
   2.945477119460000E-05   3.020112008850000E-05   3.096636289470000E-05
   3.175097791470000E-05   3.255545555840000E-05   3.338029865070000E-05
   3.422602274530000E-05   3.509315644730000E-05   3.598224174350000E-05
   3.689383434110000E-05   3.782850401520000E-05   3.878683496470000E-05
   3.976942617770000E-05   4.077689180570000E-05   4.180986154740000E-05
   4.286898104270000E-05   4.395491227570000E-05   4.506833398870000E-05
   4.620994210660000E-05   4.738045017160000E-05   4.858058978930000E-05
   4.981111108610000E-05   5.107278317780000E-05   5.236639465060000E-05
   5.369275405370000E-05   5.505269040490000E-05   5.644705370890000E-05
   5.787671548790000E-05   5.934256932710000E-05   6.084553143300000E-05
   6.238654120570000E-05   6.396656182650000E-05   6.558658085980000E-05
   6.724761087019999E-05   6.895069005540000E-05   7.069688289560000E-05
   7.248728081790001E-05   7.432300287940001E-05   7.620519646610000E-05
   7.813503801040000E-05   8.011373372589999E-05   8.214252036190000E-05
   8.422266597620000E-05   8.635547072739999E-05   8.854226768790000E-05
   9.078442367699999E-05   9.308334011529999E-05   9.544045390020000E-05
   9.785723830470000E-05   1.003352038980000E-04   1.028758994880000E-04
   1.054809130940000E-04   1.081518729330000E-04   1.108904484430000E-04
   1.136983513210000E-04   1.165773365990000E-04   1.195292037370000E-04
   1.225557977470000E-04   1.256590103490000E-04   1.288407811520000E-04
   1.321030988660000E-04   1.354480025470000E-04   1.388775828670000E-04
   1.423939834270000E-04   1.459994020900000E-04   1.496960923620000E-04
   1.534863647930000E-04   1.573725884280000E-04   1.613571922820000E-04
   1.654426668630000E-04   1.696315657260000E-04   1.739265070680000E-04
   1.783301753680000E-04   1.828453230620000E-04   1.874747722640000E-04
   1.922214165300000E-04   1.970882226680000E-04   2.020782325900000E-04
   2.071945652140000E-04   2.124404184160000E-04   2.178190710230000E-04
   2.233338848700000E-04   2.289883068940000E-04   2.347858712920000E-04
   2.407302017330000E-04   2.468250136150000E-04   2.530741163940000E-04
   2.594814159630000E-04   2.660509170930000E-04   2.727867259360000E-04
   2.796930525920000E-04   2.867742137390000E-04   2.940346353340000E-04
   3.014788553770000E-04   3.091115267480000E-04   3.169374201140000E-04
   3.249614269140000E-04   3.331885624130000E-04   3.416239688390000E-04
   3.502729185960000E-04   3.591408175570000E-04   3.682332084500000E-04
   3.775557743140000E-04   3.871143420570000E-04   3.969148860940000E-04
   4.069635320840000E-04   4.172665607590000E-04   4.278304118470000E-04
   4.386616880980000E-04   4.497671594130000E-04   4.611537670720000E-04
   4.728286280770000E-04   4.847990395950000E-04   4.970724835240000E-04
   5.096566311650000E-04   5.225593480200000E-04   5.357886987070000E-04
   5.493529520020000E-04   5.632605860030000E-04   5.775202934360000E-04
   5.921409870810000E-04   6.071318053470000E-04   6.225021179850000E-04
   6.382615319390000E-04   6.544198973580000E-04   6.709873137440000E-04
   6.879741362730000E-04   7.053909822610000E-04   7.232487378050000E-04
   7.415585645830001E-04   7.603319068330000E-04   7.795804985040000E-04
   7.993163705930000E-04   8.195518586630000E-04   8.402996105520000E-04
   8.615725942810000E-04   8.833841061570000E-04   9.057477790840000E-04
   9.286775910880000E-04   9.521878740460000E-04   9.762933226500000E-04
   1.001009003590000E-03   1.026350364970000E-03   1.052333245980000E-03
   1.078973886740000E-03   1.106288938540000E-03   1.134295474160000E-03
   1.163010998610000E-03   1.192453460020000E-03   1.222641260900000E-03
   1.253593269580000E-03   1.285328832100000E-03   1.317867784210000E-03
   1.351230463820000E-03   1.385437723680000E-03   1.420510944440000E-03
   1.456472048020000E-03   1.493343511260000E-03   1.531148380050000E-03
   1.569910283640000E-03   1.609653449490000E-03   1.650402718380000E-03
   1.692183559920000E-03   1.735022088500000E-03   1.778945079600000E-03
   1.823979986500000E-03   1.870154957510000E-03   1.917498853470000E-03
   1.966041265860000E-03   2.015812535270000E-03   2.066843770370000E-03
   2.119166867330000E-03   2.172814529800000E-03   2.227820289310000E-03
   2.284218526250000E-03   2.342044491360000E-03   2.401334327740000E-03
   2.462125093480000E-03   2.524454784780000E-03   2.588362359720000E-03
   2.653887762630000E-03   2.721071949010000E-03   2.789956911170000E-03
   2.860585704440000E-03   2.933002474130000E-03   3.007252483080000E-03
   3.083382139940000E-03   3.161439028250000E-03   3.241471936090000E-03
   3.323530886640000E-03   3.407667169410000E-03   3.493933372330000E-03
   3.582383414560000E-03   3.673072580280000E-03   3.766057553150000E-03
   3.861396451820000E-03   3.959148866210000E-03   4.059375894740000E-03
   4.162140182580000E-03   4.267505960750000E-03   4.375539086300000E-03
   4.486307083440000E-03   4.599879185780000E-03   4.716326379570000E-03
   4.835721448120000E-03   4.958139017210000E-03   5.083655601820000E-03
   5.212349653890000E-03   5.344301611410000E-03   5.479593948630000E-03
   5.618311227680000E-03   5.760540151360000E-03   5.906369617390000E-03
   6.055890773930000E-03   6.209197076560000E-03   6.366384346730000E-03
   6.527550831580000E-03   6.692797265420000E-03   6.862226932650000E-03
   7.035945732330000E-03   7.214062244360000E-03   7.396687797360000E-03
   7.583936538240000E-03   7.775925503570000E-03   7.972774692689999E-03
   8.174607142760000E-03   8.381549005630000E-03   8.593729626700001E-03
   8.811281625760000E-03   9.034340979910000E-03   9.263047108479999E-03
   9.497542960270000E-03   9.737975102800001E-03   9.984493814010001E-03
   1.023725317610000E-02   1.049641117190000E-02   1.076212978360000E-02
   1.103457509400000E-02   1.131391739020000E-02   1.160033127040000E-02
   1.189399575240000E-02   1.219509438620000E-02   1.250381536820000E-02
   1.282035165910000E-02   1.314490110430000E-02   1.347766655790000E-02
   1.381885600900000E-02   1.416868271220000E-02   1.452736532050000E-02
   1.489512802230000E-02   1.527220068120000E-02   1.565881898000000E-02
   1.605522456750000E-02   1.646166521030000E-02   1.687839494700000E-02
   1.730567424710000E-02   1.774377017430000E-02   1.819295655260000E-02
   1.865351413820000E-02   1.912573079460000E-02   1.960990167260000E-02
   2.010632939480000E-02   2.061532424450000E-02   2.113720436020000E-02
   2.167229593400000E-02   2.222093341540000E-02   2.278345972080000E-02
   2.336022644740000E-02   2.395159409320000E-02   2.455793228220000E-02
   2.517961999560000E-02   2.581704580830000E-02   2.647060813240000E-02
   2.714071546540000E-02   2.782778664630000E-02   2.853225111700000E-02
   2.925454919070000E-02   2.999513232720000E-02   3.075446341500000E-02
   3.153301706080000E-02   3.233127988600000E-02   3.314975083080000E-02
   3.398894146630000E-02   3.484937631380000E-02   3.573159317320000E-02
   3.663614345870000E-02   3.756359254380000E-02   3.851452011420000E-02
   3.948952053060000E-02   4.048920320010000E-02   4.151419295680000E-02
   4.256513045280000E-02   4.364267255820000E-02   4.474749277180000E-02
   4.588028164230000E-02   4.704174719960000E-02   4.823261539750000E-02
   4.945363056730000E-02   5.070555588330000E-02   5.198917383950000E-02
   5.330528673900000E-02   5.465471719520000E-02   5.603830864610000E-02
   5.745692588120000E-02   5.891145558270000E-02   6.040280687890000E-02
   6.193191191280000E-02   6.349972642500000E-02   6.510723035050001E-02
   6.675542843170000E-02   6.844535084590000E-02   7.017805384970000E-02
   7.195462043890000E-02   7.377616102539999E-02   7.564381413140001E-02
   7.755874710089999E-02   7.952215682930000E-02   8.153527051160001E-02
   8.359934640940000E-02   8.571567463730000E-02   8.788557796940000E-02
   9.011041266590000E-02   9.239156932080000E-02   9.473047373140001E-02
   9.712858778910000E-02   9.958741039310000E-02   1.021084783880000E-01
   1.046933675230000E-01   1.073436934370000E-01   1.100611126720000E-01
   1.128473237020000E-01   1.157040680000000E-01   1.186331311250000E-01
   1.216363438350000E-01   1.247155832370000E-01   1.278727739560000E-01
   1.311098893380000E-01   1.344289526870000E-01   1.378320385240000E-01
   1.413212738890000E-01   1.448988396680000E-01   1.485669719560000E-01
   1.523279634550000E-01   1.561841649070000E-01   1.601379865630000E-01
   1.641918996910000E-01   1.683484381190000E-01   1.726101998180000E-01
   1.769798485280000E-01   1.814601154210000E-01   1.860538008110000E-01
   1.907637759010000E-01   1.955929845770000E-01   2.005444452530000E-01
   2.056212527530000E-01   2.108265802470000E-01   2.161636812330000E-01
   2.216358915750000E-01   2.272466315800000E-01   2.329994081450000E-01
   2.388978169420000E-01   2.449455446690000E-01   2.511463713520000E-01
   2.575041727100000E-01   2.640229225750000E-01   2.707066953790000E-01
   2.775596686980000E-01   2.845861258610000E-01   2.917904586350000E-01
   2.991771699610000E-01   3.067508767740000E-01   3.145163128890000E-01
   3.224783319540000E-01   3.306419104920000E-01   3.390121510040000E-01
   3.475942851640000E-01   3.563936770840000E-01   3.654158266720000E-01
   3.746663730630000E-01   3.841510981510000E-01   3.938759301990000E-01
   4.038469475410000E-01   4.140703823890000E-01   4.245526247230000E-01
   4.353002262840000E-01   4.463199046750000E-01   4.576185475520000E-01
   4.692032169350000E-01   4.810811536200000E-01   4.932597817040000E-01
   5.057467132260000E-01   5.185497529240000E-01   5.316769031150000E-01
   5.451363686950000E-01   5.589365622680000E-01   5.730861094050000E-01
   5.875938540340000E-01   6.024688639660000E-01   6.177204365670000E-01
   6.333581045670000E-01   6.493916420169999E-01   6.658310704000000E-01
   6.826866648940000E-01   6.999689607940000E-01   7.176887600980000E-01
   7.358571382560000E-01   7.544854510980000E-01   7.735853419240000E-01
   7.931687487890000E-01   8.132479119579999E-01   8.338353815640001E-01
   8.549440254430000E-01   8.765870371870000E-01   8.987779443810000E-01
   9.215306170660000E-01   9.448592764020000E-01   9.687785035599999E-01
   9.933032488370001E-01   1.018448841000000E+00   1.044230996850000E+00
   1.070665831090000E+00   1.097769866340000E+00   1.125560043520000E+00
   1.154053732370000E+00   1.183268742400000E+00   1.213223333920000E+00
   1.243936229540000E+00   1.275426625810000E+00   1.307714205260000E+00
   1.340819148680000E+00   1.374762147730000E+00   1.409564417890000E+00
   1.445247711710000E+00   1.481834332420000E+00   1.519347147840000E+00
   1.557809604700000E+00   1.597245743300000E+00   1.637680212500000E+00
   1.679138285150000E+00   1.721645873920000E+00   1.765229547410000E+00
   1.809916546860000E+00   1.855734803080000E+00   1.902712953980000E+00
   1.950880362430000E+00   2.000267134630000E+00   2.050904138920000E+00
   2.102823025080000E+00   2.156056244100000E+00   2.210637068470000E+00
   2.266599613000000E+00   2.323978856080000E+00   2.382810661610000E+00
   2.443131801400000E+00   2.504979978100000E+00   2.568393848860000E+00
   2.633413049390000E+00   2.700078218830000E+00   2.768431025060000E+00
   2.838514190820000E+00   2.910371520370000E+00   2.984047926880000E+00
   3.059589460490000E+00   3.137043337140000E+00   3.216457968010000E+00
   3.297882989830000E+00   3.381369295890000E+00   3.466969067850000E+00
   3.554735808350000E+00   3.644724374470000E+00   3.736991011990000E+00
   3.831593390550000E+00   3.928590639730000E+00   4.028043385970000E+00
   4.130013790460000E+00   4.234565588030000E+00   4.341764126960000E+00
   4.451676409820000E+00   4.564371135370000E+00   4.679918741470000E+00
   4.798391449160000E+00   4.919863307710000E+00   5.044410241010000E+00
   5.172110094930000E+00   5.303042686050000E+00   5.437289851490000E+00
   5.574935500100000E+00   5.716065664900000E+00   5.860768556830000E+00
   6.009134619910000E+00   6.161256587760000E+00   6.317229541560000E+00
   6.477150969480000E+00   6.641120827630000E+00   6.809241602500000E+00
   6.981618375040000E+00   7.158358886360000E+00   7.339573605020000E+00
   7.525375796130000E+00   7.715881592100000E+00   7.911210065250000E+00
   8.111483302240000E+00   8.316826480370000E+00   8.527367945800000E+00
   8.743239293800000E+00   8.964575451000000E+00   9.191514759690000E+00
   9.424199064330001E+00   9.662773800180000E+00   9.907388084230000E+00
   1.015819480840000E+01   1.041535073490000E+01   1.067901659480000E+01
   1.094935718770000E+01   1.122654148530000E+01   1.151074273670000E+01
   1.180213857710000E+01   1.210091113830000E+01   1.240724716300000E+01
   1.272133812100000E+01   1.304338032940000E+01   1.337357507520000E+01
   1.371212874080000E+01   1.405925293320000E+01   1.441516461640000E+01
   1.478008624670000E+01   1.515424591210000E+01   1.553787747460000E+01
   1.593122071620000E+01   1.633452148940000E+01   1.674803187040000E+01
   1.717201031640000E+01   1.760672182790000E+01   1.805243811370000E+01
   1.850943776100000E+01   1.897800640950000E+01   1.945843692970000E+01
   1.995102960650000E+01   2.045609232630000E+01   2.097394076970000E+01
   2.150489860890000E+01   2.204929770970000E+01   2.260747833940000E+01
   2.317978937900000E+01   2.376658854160000E+01   2.436824259570000E+01
   2.498512759460000E+01   2.561762911170000E+01   2.626614248090000E+01
   2.693107304420000E+01   2.761283640490000E+01   2.831185868720000E+01
   2.902857680280000E+01   2.976343872400000E+01   3.051690376320000E+01
   3.128944286070000E+01   3.208153887850000E+01   3.289368690250000E+01
   3.372639455170000E+01   3.458018229530000E+01   3.545558377860000E+01
   3.635314615590000E+01   3.727343043290000E+01   3.821701181740000E+01
   3.918448007840000E+01   4.017643991490000E+01   4.119351133430000E+01
   4.223633003930000E+01   4.330554782540000E+01   4.440183298870000E+01
   4.552587074300000E+01   4.667836364850000E+01   4.786003205090000E+01
   4.907161453120000E+01   5.031386836810000E+01   5.158757001060000E+01
   5.289351556370000E+01   5.423252128580000E+01   5.560542409920000E+01
   5.701308211280000E+01   5.845637515870000E+01   5.993620534190000E+01
   6.145349760460000E+01   6.300920030380000E+01   6.460428580440001E+01
   6.623975108659999E+01   6.791661836960000E+01   6.963593574990000E+01
   7.139877785700000E+01   7.320624652440000E+01   7.505947147900000E+01
   7.695961104670000E+01   7.890785287650000E+01   8.090541468310001E+01
   8.295354500760000E+01   8.505352399810000E+01   8.720666420990000E+01
   8.941431142560000E+01   9.167784549660000E+01   9.399868120550001E+01
   9.637826914999999E+01   9.881809665020000E+01   1.013196886780000E+02
   1.038846088090000E+02   1.065144602020000E+02   1.092108866000000E+02
   1.119755733580000E+02   1.148102484940000E+02   1.177166837730000E+02
   1.206966958110000E+02   1.237521472130000E+02   1.268849477350000E+02
   1.300970554810000E+02   1.333904781210000E+02   1.367672741520000E+02
   1.402295541820000E+02   1.437794822470000E+02   1.474192771700000E+02
   1.511512139400000E+02   1.549776251390000E+02
    </PP_R>
    <PP_RAB>
   6.891248192020000E-10   7.065700970560000E-10   7.244570042220000E-10
   7.427967205990000E-10   7.616007091060000E-10   7.808807228480000E-10
   8.006488124620000E-10   8.209173336480000E-10   8.416989548890000E-10
   8.630066653780000E-10   8.848537831250000E-10   9.072539632910000E-10
   9.302212067180000E-10   9.537698686810001E-10   9.779146678590001E-10
   1.002670695540000E-09   1.028053425040000E-09   1.054078721400000E-09
   1.080762851280000E-09   1.108122493120000E-09   1.136174747580000E-09
   1.164937148260000E-09   1.194427672570000E-09   1.224664753060000E-09
   1.255667288880000E-09   1.287454657640000E-09   1.320046727470000E-09
   1.353463869470000E-09   1.387726970450000E-09   1.422857445960000E-09
   1.458877253700000E-09   1.495808907210000E-09   1.533675489970000E-09
   1.572500669850000E-09   1.612308713830000E-09   1.653124503240000E-09
   1.694973549280000E-09   1.737882008970000E-09   1.781876701480000E-09
   1.826985124940000E-09   1.873235473580000E-09   1.920656655360000E-09
   1.969278310080000E-09   2.019130827840000E-09   2.070245368100000E-09
   2.122653879110000E-09   2.176389117890000E-09   2.231484670720000E-09
   2.287974974110000E-09   2.345895336340000E-09   2.405281959510000E-09
   2.466171962210000E-09   2.528603402670000E-09   2.592615302570000E-09
   2.658247671420000E-09   2.725541531610000E-09   2.794538943980000E-09
   2.865283034150000E-09   2.937818019500000E-09   3.012189236740000E-09
   3.088443170310000E-09   3.166627481400000E-09   3.246791037750000E-09
   3.328983944190000E-09   3.413257573960000E-09   3.499664600830000E-09
   3.588259031990000E-09   3.679096241860000E-09   3.772233006640000E-09
   3.867727539850000E-09   3.965639528680000E-09   4.066030171300000E-09
   4.168962215150000E-09   4.274499996080000E-09   4.382709478670000E-09
   4.493658297340000E-09   4.607415798740000E-09   4.724053084990000E-09
   4.843643058200000E-09   4.966260465990000E-09   5.091981948250000E-09
   5.220886084970000E-09   5.353053445460000E-09   5.488566638600000E-09
   5.627510364570000E-09   5.769971467700000E-09   5.916038990830000E-09
   6.065804230910000E-09   6.219360796090000E-09   6.376804664230000E-09
   6.538234242860000E-09   6.703750430740000E-09   6.873456680860000E-09
   7.047459065150000E-09   7.225866340780000E-09   7.408790018090000E-09
   7.596344430340000E-09   7.788646805140000E-09   7.985817337730000E-09
   8.187979266119999E-09   8.395258948089999E-09   8.607785940200000E-09
   8.825693078720000E-09   9.049116562720000E-09   9.278196039150000E-09
   9.513074690129999E-09   9.753899322469999E-09   1.000082045940000E-08
   1.025399243470000E-08   1.051357348900000E-08   1.077972586900000E-08
   1.105261592860000E-08   1.133241423300000E-08   1.161929566510000E-08
   1.191343953530000E-08   1.221502969300000E-08   1.252425464190000E-08
   1.284130765760000E-08   1.316638690860000E-08   1.349969558010000E-08
   1.384144200080000E-08   1.419183977320000E-08   1.455110790760000E-08
   1.491947095800000E-08   1.529715916350000E-08   1.568440859140000E-08
   1.608146128520000E-08   1.648856541590000E-08   1.690597543660000E-08
   1.733395224240000E-08   1.777276333260000E-08   1.822268297840000E-08
   1.868399239430000E-08   1.915697991360000E-08   1.964194116900000E-08
   2.013917927700000E-08   2.064900502770000E-08   2.117173707870000E-08
   2.170770215450000E-08   2.225723525090000E-08   2.282067984380000E-08
   2.339838810450000E-08   2.399072111940000E-08   2.459804911610000E-08
   2.522075169410000E-08   2.585921806290000E-08   2.651384728490000E-08
   2.718504852450000E-08   2.787324130430000E-08   2.857885576730000E-08
   2.930233294550000E-08   3.004412503570000E-08   3.080469568200000E-08
   3.158452026590000E-08   3.238408620320000E-08   3.320389324850000E-08
   3.404445380800000E-08   3.490629325930000E-08   3.578995028020000E-08
   3.669597718510000E-08   3.762494027030000E-08   3.857742016800000E-08
   3.955401220910000E-08   4.055532679540000E-08   4.158198978110000E-08
   4.263464286410000E-08   4.371394398670000E-08   4.482056774730000E-08
   4.595520582180000E-08   4.711856739590000E-08   4.831137960850000E-08
   4.953438800600000E-08   5.078835700840000E-08   5.207407038730000E-08
   5.339233175540000E-08   5.474396506890000E-08   5.612981514260000E-08
   5.755074817790000E-08   5.900765230430000E-08   6.050143813420000E-08
   6.203303933250000E-08   6.360341319970000E-08   6.521354127059999E-08
   6.686442992770000E-08   6.855711103010001E-08   7.029264255870000E-08
   7.207210927699999E-08   7.389662340980000E-08   7.576732533780000E-08
   7.768538431050000E-08   7.965199917730000E-08   8.166839913650000E-08
   8.373584450370001E-08   8.585562749950000E-08   8.802907305740000E-08
   9.025753965150001E-08   9.254242014600000E-08   9.488514266560000E-08
   9.728717148820000E-08   9.975000795990000E-08   1.022751914340000E-07
   1.048643002310000E-07   1.075189526310000E-07   1.102408078750000E-07
   1.130315672130000E-07   1.158929749600000E-07   1.188268195890000E-07
   1.218349348490000E-07   1.249192009080000E-07   1.280815455350000E-07
   1.313239452970000E-07   1.346484268000000E-07   1.380570679530000E-07
   1.415519992680000E-07   1.451354051900000E-07   1.488095254640000E-07
   1.525766565370000E-07   1.564391529860000E-07   1.603994289990000E-07
   1.644599598760000E-07   1.686232835820000E-07   1.728920023290000E-07
   1.772687842050000E-07   1.817563648430000E-07   1.863575491250000E-07
   1.910752129420000E-07   1.959123049860000E-07   2.008718485990000E-07
   2.059569436570000E-07   2.111707685080000E-07   2.165165819640000E-07
   2.219977253320000E-07   2.276176245050000E-07   2.333797921030000E-07
   2.392878296680000E-07   2.453454299160000E-07   2.515563790440000E-07
   2.579245590990000E-07   2.644539503980000E-07   2.711486340260000E-07
   2.780127943760000E-07   2.850507217730000E-07   2.922668151510000E-07
   2.996655848010000E-07   3.072516551980000E-07   3.150297678800000E-07
   3.230047844230000E-07   3.311816894710000E-07   3.395655938550000E-07
   3.481617377900000E-07   3.569754941440000E-07   3.660123718020000E-07
   3.752780191080000E-07   3.847782273920000E-07   3.945189345930000E-07
   4.045062289720000E-07   4.147463529110000E-07   4.252457068220000E-07
   4.360108531430000E-07   4.470485204400000E-07   4.583656076150000E-07
   4.699691882160000E-07   4.818665148590000E-07   4.940650237590000E-07
   5.065723393820000E-07   5.193962792080000E-07   5.325448586160000E-07
   5.460262958970000E-07   5.598490173870000E-07   5.740216627370000E-07
   5.885530903130000E-07   6.034523827300000E-07   6.187288525290000E-07