<UPF version="2.0.1">
  <PP_INFO>
    Generated by new atomic code, or converted to UPF format
    Author: 
    Generation date: 
    Pseudopotential type: US
    Element: Pd
    Functional:  SLA  PZ   NOGX NOGC
    Suggested minimum cutoff for wavefunctions:   0. Ry
    Suggested minimum cutoff for charge density:   0. Ry
    The Pseudo was generated with a Non-Relativistic Calculation
    L component and cutoff radius for Local Potential:  0   0.0000
    Valence configuration: 
    nl pn  l   occ       Rcut    Rcut US       E pseu
    4P  2  1  6.00      0.000      0.000     0.000000
    4D  3  2  9.50      0.000      0.000     0.000000
    5S  1  0  0.00      0.000      0.000     0.000000
    5P  2  1  0.00      0.000      0.000     0.000000
    Generation configuration: not available.
  </PP_INFO>
    <!-- END OF HUMAN READABLE SECTION -->
  <PP_HEADER generated="Generated by new atomic code, or converted to UPF format" author="" date="" comment="" element="Pd" pseudo_type="US" relativistic="no" is_ultrasoft="true" is_paw="false" is_coulomb="false" has_so="false" has_wfc="false" has_gipaw="false" paw_as_gipaw="false" core_correction="true" functional=" SLA  PZ   NOGX NOGC" z_valence="16.000000000000000" total_psenergy="-198.17756153100001" wfc_cutoff="0.0000000000000000" rho_cutoff="0.0000000000000000" l_max="2" l_max_rho="0" l_local="0" mesh_size="887" number_of_wfc="4" number_of_proj="6"/>
  <PP_MESH>
    <PP_R>
   0.000000000000000E+00   1.243924160060000E-09   2.519338410150000E-09
   3.827039925700000E-09   5.167846062730000E-09   6.542594868720000E-09
   7.952145606419999E-09   9.397379290929999E-09   1.087919924040000E-08
   1.239853164040000E-08   1.395632612320000E-08   1.555355636120000E-08
   1.719122067510000E-08   1.887034265850000E-08   2.059197181730000E-08
   2.235718422580000E-08   2.416708319910000E-08   2.602279998310000E-08
   2.792549446110000E-08   2.987635587910000E-08   3.187660358910000E-08
   3.392748781090000E-08   3.603029041400000E-08   3.818632571840000E-08
   4.039694131640000E-08   4.266351891470000E-08   4.498747519810000E-08
   4.737026271490000E-08   4.981337078480000E-08   5.231832643000000E-08
   5.488669532930000E-08   5.752008279680000E-08   6.022013478540000E-08
   6.298853891560000E-08   6.582702553000000E-08   6.873736877510000E-08
   7.172138771020000E-08   7.478094744429999E-08   7.791796030190000E-08
   8.113438701800000E-08   8.443223796410001E-08   8.781357440429999E-08
   9.128050978410000E-08   9.483521105090000E-08   9.847990000869999E-08
   1.022168547070000E-07   1.060484108630000E-07   1.099769633260000E-07
   1.140049675670000E-07   1.181349412220000E-07   1.223694656570000E-07
   1.267111875890000E-07   1.311628207340000E-07   1.357271475100000E-07
   1.404070207670000E-07   1.452053655800000E-07   1.501251810710000E-07
   1.551695422840000E-07   1.603416021080000E-07   1.656445932510000E-07
   1.710818302530000E-07   1.766567115660000E-07   1.823727216710000E-07
   1.882334332600000E-07   1.942425094700000E-07   2.004037061680000E-07
   2.067208743030000E-07   2.131979623110000E-07   2.198390185830000E-07
   2.266481939940000E-07   2.336297445020000E-07   2.407880338020000E-07
   2.481275360590000E-07   2.556528387000000E-07   2.633686452840000E-07
   2.712797784410000E-07   2.793911828890000E-07   2.877079285170000E-07
   2.962352135630000E-07   3.049783678580000E-07   3.139428561580000E-07
   3.231342815590000E-07   3.325583890030000E-07   3.422210688620000E-07
   3.521283606260000E-07   3.622864566750000E-07   3.727017061510000E-07
   3.833806189220000E-07   3.943298696560000E-07   4.055563019930000E-07
   4.170669328180000E-07   4.288689566490000E-07   4.409697501350000E-07
   4.533768766680000E-07   4.660980911040000E-07   4.791413446160000E-07
   4.925147896640000E-07   5.062267850840000E-07   5.202859013210000E-07
   5.347009257800000E-07   5.494808683210000E-07   5.646349668880000E-07
   5.801726932880000E-07   5.961037591030000E-07   6.124381217700000E-07
   6.291859907960000E-07   6.463578341460000E-07   6.639643847790000E-07
   6.820166473640000E-07   7.005259051520000E-07   7.195037270309999E-07
   7.389619747590000E-07   7.589128103730000E-07   7.793687037950000E-07
   8.003424406250000E-07   8.218471301300000E-07   8.438962134420000E-07
   8.665034719550000E-07   8.896830359430000E-07   9.134493933860000E-07
   9.378173990330000E-07   9.628022836790001E-07   9.884196636920001E-07
   1.014685550770000E-06   1.041616361940000E-06   1.069228929840000E-06
   1.097540513230000E-06   1.126568807760000E-06   1.156331957070000E-06
   1.186848564090000E-06   1.218137702690000E-06   1.250218929610000E-06
   1.283112296660000E-06   1.316838363250000E-06   1.351418209290000E-06
   1.386873448300000E-06   1.423226240950000E-06   1.460499308940000E-06
   1.498715949130000E-06   1.537900048170000E-06   1.578076097410000E-06
   1.619269208170000E-06   1.661505127500000E-06   1.704810254210000E-06
   1.749211655430000E-06   1.794737083470000E-06   1.841414993200000E-06
   1.889274559850000E-06   1.938345697200000E-06   1.988659076300000E-06
   2.040246144660000E-06   2.093139145870000E-06   2.147371139790000E-06
   2.202976023160000E-06   2.259988550860000E-06   2.318444357570000E-06
   2.378379980070000E-06   2.439832880080000E-06   2.502841467660000E-06
   2.567445125220000E-06   2.633684232170000E-06   2.701600190090000E-06
   2.771235448670000E-06   2.842633532210000E-06   2.915839066850000E-06
   2.990897808420000E-06   3.067856671070000E-06   3.146763756610000E-06
   3.227668384530000E-06   3.310621122860000E-06   3.395673819760000E-06
   3.482879635920000E-06   3.572293077840000E-06   3.663970031810000E-06
   3.757967798930000E-06   3.854345130840000E-06   3.953162266530000E-06
   4.054480969920000E-06   4.158364568500000E-06   4.264877992900000E-06
   4.374087817470000E-06   4.486062301910000E-06   4.600871433930000E-06
   4.718586972960000E-06   4.839282495040000E-06   4.963033438810000E-06
   5.089917152640000E-06   5.220012942980000E-06   5.353402123930000E-06
   5.490168068080000E-06   5.630396258580000E-06   5.774174342630000E-06
   5.921592186200000E-06   6.072741930250000E-06   6.227718048290000E-06
   6.386617405430000E-06   6.549539318950000E-06   6.716585620350000E-06
   6.887860719000000E-06   7.063471667420000E-06   7.243528228160000E-06
   7.428142942440000E-06   7.617431200460000E-06   7.811511313549999E-06
   8.010504588090000E-06   8.214535401360001E-06   8.423731279260000E-06
   8.638222976020000E-06   8.858144555930000E-06   9.083633477149999E-06
   9.314830677579999E-06   9.551880663010001E-06   9.794931597390000E-06
   1.004413539550000E-05   1.029964781770000E-05   1.056162856770000E-05
   1.083024139200000E-05   1.110565418230000E-05   1.138803908060000E-05
   1.167757258670000E-05   1.197443566830000E-05   1.227881387460000E-05
   1.259089745190000E-05   1.291088146260000E-05   1.323896590700000E-05
   1.357535584870000E-05   1.392026154240000E-05   1.427389856520000E-05
   1.463648795190000E-05   1.500825633260000E-05   1.538943607470000E-05
   1.578026542790000E-05   1.618098867330000E-05   1.659185627590000E-05
   1.701312504140000E-05   1.744505827650000E-05   1.788792595350000E-05
   1.834200487910000E-05   1.880757886740000E-05   1.928493891740000E-05
   1.977438339450000E-05   2.027621821760000E-05   2.079075704970000E-05
   2.131832149440000E-05   2.185924129660000E-05   2.241385454870000E-05
   2.298250790220000E-05   2.356555678380000E-05   2.416336561820000E-05
   2.477630805530000E-05   2.540476720400000E-05   2.604913587180000E-05
   2.670981681010000E-05   2.738722296600000E-05   2.808177774040000E-05
   2.879391525260000E-05   2.952408061180000E-05   3.027273019500000E-05
   3.104033193260000E-05   3.182736560080000E-05   3.263432312110000E-05
   3.346170886830000E-05   3.431003998540000E-05   3.517984670700000E-05
   3.607167269060000E-05   3.698607535640000E-05   3.792362623600000E-05
   3.888491132900000E-05   3.987053147000000E-05   4.088110270370000E-05
   4.191725667000000E-05   4.297964099880000E-05   4.406891971500000E-05
   4.518577365310000E-05   4.633090088330000E-05   4.750501714730000E-05
   4.870885630610000E-05   4.994317079820000E-05   5.120873211050000E-05
   5.250633125990000E-05   5.383677928820000E-05   5.520090776870000E-05
   5.659956932610000E-05   5.803363816940000E-05   5.950401063830000E-05
   6.101160576340000E-05   6.255736584090000E-05   6.414225702100001E-05
   6.576726991240000E-05   6.743342020090000E-05   6.914174928480000E-05
   7.089332492540000E-05   7.268924191440001E-05   7.453062275849999E-05
   7.641861838050000E-05   7.835440883930000E-05   8.033920406690001E-05
   8.237424462480000E-05   8.446080247980001E-05   8.660018179830000E-05
   8.879371976209999E-05   9.104278740390000E-05   9.334879046400000E-05
   9.571317026960000E-05   9.813740463489999E-05   1.006230087850000E-04
   1.031715363040000E-04   1.057845801050000E-04   1.084637734240000E-04
   1.112107908450000E-04   1.140273493430000E-04   1.169152093590000E-04
   1.198761758990000E-04   1.229120996640000E-04   1.260248782050000E-04
   1.292164571100000E-04   1.324888312200000E-04   1.358440458740000E-04
   1.392841981920000E-04   1.428114383810000E-04   1.464279710800000E-04
   1.501360567400000E-04   1.539380130360000E-04   1.578362163130000E-04
   1.618331030760000E-04   1.659311715100000E-04   1.701329830400000E-04
   1.744411639350000E-04   1.788584069480000E-04   1.833874730010000E-04
   1.880311929070000E-04   1.927924691420000E-04   1.976742776580000E-04
   2.026796697460000E-04   2.078117739380000E-04   2.130737979660000E-04
   2.184690307660000E-04   2.240008445350000E-04   2.296726968360000E-04
   2.354881327620000E-04   2.414507871490000E-04   2.475643868500000E-04
   2.538327530650000E-04   2.602598037260000E-04   2.668495559490000E-04
   2.736061285440000E-04   2.805337445890000E-04   2.876367340680000E-04
   2.949195365820000E-04   3.023867041200000E-04   3.100429039040000E-04
   3.178929213080000E-04   3.259416628490000E-04   3.341941592520000E-04
   3.426555685970000E-04   3.513311795380000E-04   3.602264146160000E-04
   3.693468336430000E-04   3.786981371760000E-04   3.882861700850000E-04
   3.981169252030000E-04   4.081965470710000E-04   4.185313357820000E-04
   4.291277509150000E-04   4.399924155740000E-04   4.511321205280000E-04
   4.625538284560000E-04   4.742646782960000E-04   4.862719897120000E-04
   4.985832676640000E-04   5.112062071000000E-04   5.241486977700000E-04
   5.374188291510000E-04   5.510248955070000E-04   5.649754010730000E-04
   5.792790653680000E-04   5.939448286500000E-04   6.089818574960000E-04
   6.243995505400000E-04   6.402075443410000E-04   6.564157194110000E-04
   6.730342063860000E-04   6.900733923620000E-04   7.075439273850000E-04
   7.254567311070000E-04   7.438229996140000E-04   7.626542124230000E-04
   7.819621396530000E-04   8.017588493880000E-04   8.220567152160000E-04
   8.428684239630000E-04   8.642069836260001E-04   8.860857314990000E-04
   9.085183425110000E-04   9.315188377750000E-04   9.551015933480000E-04
   9.792813492210000E-04   1.004073218530000E-03   1.029492696990000E-03
   1.055555672620000E-03   1.082278435620000E-03   1.109677688580000E-03
   1.137770556940000E-03   1.166574599640000E-03   1.196107820150000E-03
   1.226388677700000E-03   1.257436098810000E-03   1.289269489130000E-03
   1.321908745560000E-03   1.355374268700000E-03   1.389686975590000E-03
   1.424868312800000E-03   1.460940269790000E-03   1.497925392720000E-03
   1.535846798500000E-03   1.574728189240000E-03   1.614593867060000E-03
   1.655468749330000E-03   1.697378384170000E-03   1.740348966460000E-03
   1.784407354230000E-03   1.829581085390000E-03   1.875898395000000E-03
   1.923388232880000E-03   1.972080281740000E-03   2.022004975680000E-03
   2.073193519260000E-03   2.125677907000000E-03   2.179490943330000E-03
   2.234666263170000E-03   2.291238352880000E-03   2.349242571860000E-03
   2.408715174630000E-03   2.469693333510000E-03   2.532215161830000E-03
   2.596319737770000E-03   2.662047128770000E-03   2.729438416600000E-03
   2.798535723010000E-03   2.869382236050000E-03   2.942022237110000E-03
   3.016501128560000E-03   3.092865462110000E-03   3.171162967970000E-03
   3.251442584640000E-03   3.333754489470000E-03   3.418150130090000E-03
   3.504682256530000E-03   3.593404954180000E-03   3.684373677610000E-03
   3.777645285240000E-03   3.873278074860000E-03   3.971331820070000E-03
   4.071867807660000E-03   4.174948875900000E-03   4.280639453800000E-03
   4.389005601420000E-03   4.500115051120000E-03   4.614037249940000E-03
   4.730843402950000E-03   4.850606517800000E-03   4.973401450340000E-03
   5.099304951400000E-03   5.228395714760000E-03   5.360754426350000E-03
   5.496463814680000E-03   5.635608702530000E-03   5.778276059990000E-03
   5.924555058800000E-03   6.074537128090000E-03   6.228316011540000E-03
   6.385987825960000E-03   6.547651121370000E-03   6.713406942580000E-03
   6.883358892380000E-03   7.057613196280000E-03   7.236278768880000E-03
   7.419467281990000E-03   7.607293234390000E-03   7.799874023400000E-03
   7.997330018310000E-03   8.199784635519999E-03   8.407364415760000E-03
   8.620199103160000E-03   8.838421726330000E-03   9.062168681499999E-03
   9.291579817810000E-03   9.526798524689999E-03   9.767971821470000E-03
   1.001525044930000E-02   1.026878896550000E-02   1.052874583970000E-02
   1.079528355350000E-02   1.106856870170000E-02   1.134877209630000E-02
   1.163606887370000E-02   1.193063860360000E-02   1.223266540170000E-02
   1.254233804460000E-02   1.285985008780000E-02   1.318539998660000E-02
   1.351919122030000E-02   1.386143241940000E-02   1.421233749570000E-02
   1.457212577620000E-02   1.494102214050000E-02   1.531925716060000E-02
   1.570706724590000E-02   1.610469479030000E-02   1.651238832380000E-02
   1.693040266830000E-02   1.735899909630000E-02   1.779844549450000E-02
   1.824901653130000E-02   1.871099382820000E-02   1.918466613600000E-02
   1.967032951540000E-02   2.016828752170000E-02   2.067885139500000E-02
   2.120234025430000E-02   2.173908129720000E-02   2.228941000420000E-02
   2.285367034880000E-02   2.343221501210000E-02   2.402540560320000E-02
   2.463361288560000E-02   2.525721700870000E-02   2.589660774530000E-02
   2.655218473550000E-02   2.722435773610000E-02   2.791354687740000E-02
   2.862018292470000E-02   2.934470754880000E-02   3.008757360110000E-02
   3.084924539700000E-02   3.163019900630000E-02   3.243092255030000E-02
   3.325191650730000E-02   3.409369402520000E-02   3.495678124250000E-02
   3.584171761680000E-02   3.674905626190000E-02   3.767936429430000E-02
   3.863322318660000E-02   3.961122913180000E-02   4.061399341530000E-02
   4.164214279750000E-02   4.269631990520000E-02   4.377718363350000E-02
   4.488540955730000E-02   4.602169035400000E-02   4.718673623600000E-02
   4.838127539480000E-02   4.960605445650000E-02   5.086183894780000E-02
   5.214941377470000E-02   5.346958371360000E-02   5.482317391370000E-02
   5.621103041270000E-02   5.763402066640000E-02   5.909303408980000E-02
   6.058898261380000E-02   6.212280125510000E-02   6.369544870009999E-02
   6.530790790469999E-02   6.696118670840000E-02   6.865631846440000E-02
   7.039436268500000E-02   7.217640570450000E-02   7.400356135790000E-02
   7.587697167680001E-02   7.779780760370000E-02   7.976726972370000E-02
   8.178658901459999E-02   8.385702761670000E-02   8.597987962150000E-02
   8.815647188080000E-02   9.038816483540001E-02   9.267635336610000E-02
   9.502246766520001E-02   9.742797413060000E-02   9.989437628210000E-02
   1.024232157010000E-01   1.050160729950000E-01   1.076745687840000E-01
   1.104003647140000E-01   1.131951644970000E-01   1.160607149730000E-01
   1.189988072040000E-01   1.220112775950000E-01   1.251000090360000E-01
   1.282669320870000E-01   1.315140261760000E-01   1.348433208430000E-01
   1.382568970060000E-01   1.417568882610000E-01   1.453454822160000E-01
   1.490249218600000E-01   1.527975069620000E-01   1.566655955110000E-01
   1.606316051870000E-01   1.646980148760000E-01   1.688673662170000E-01
   1.731422651890000E-01   1.775253837440000E-01   1.820194614740000E-01
   1.866273073230000E-01   1.913518013450000E-01   1.961958965020000E-01
   2.011626205130000E-01   2.062550777400000E-01   2.114764511350000E-01
   2.168300042280000E-01   2.223190831620000E-01   2.279471187910000E-01
   2.337176288210000E-01   2.396342200070000E-01   2.457005904120000E-01
   2.519205317150000E-01   2.582979315820000E-01   2.648367760950000E-01
   2.715411522450000E-01   2.784152504860000E-01   2.854633673510000E-01
   2.926899081450000E-01   3.000993896900000E-01   3.076964431530000E-01
   3.154858169400000E-01   3.234723796640000E-01   3.316611231850000E-01
   3.400571657360000E-01   3.486657551160000E-01   3.574922719730000E-01
   3.665422331690000E-01   3.758212952230000E-01   3.853352578510000E-01
   3.950900675890000E-01   4.050918215120000E-01   4.153467710410000E-01
   4.258613258540000E-01   4.366420578880000E-01   4.476957054540000E-01
   4.590291774390000E-01   4.706495576340000E-01   4.825641091550000E-01
   4.947802789830000E-01   5.073057026220000E-01   5.201482088710000E-01
   5.333158247130000E-01   5.468167803370000E-01   5.606595142800000E-01
   5.748526787010000E-01   5.894051447899999E-01   6.043260083120000E-01
   6.196245952920000E-01   6.353104678460000E-01   6.513934301540000E-01
   6.678835345910000E-01   6.847910880090000E-01   7.021266581800000E-01
   7.199010803990000E-01   7.381254642590001E-01   7.568112005930000E-01
   7.759699685940000E-01   7.956137431160000E-01   8.157548021580000E-01
   8.364057345370000E-01   8.575794477580000E-01   8.792891760810000E-01
   9.015484887940000E-01   9.243712986900000E-01   9.477718707690000E-01
   9.717648311520000E-01   9.963651762170000E-01   1.021588281980000E+00
   1.047449913710000E+00   1.073966235770000E+00   1.101153821710000E+00
   1.129029664660000E+00   1.157611187940000E+00   1.186916255930000E+00
   1.216963185250000E+00   1.247770756200000E+00   1.279358224520000E+00
   1.311745333410000E+00   1.344952325870000E+00   1.378999957340000E+00
   1.413909508710000E+00   1.449702799580000E+00   1.486402201920000E+00
   1.524030654050000E+00   1.562611674990000E+00   1.602169379110000E+00
   1.642728491290000E+00   1.684314362280000E+00   1.726952984610000E+00
   1.770671008800000E+00   1.815495760040000E+00   1.861455255260000E+00
   1.908578220640000E+00   1.956894109570000E+00   2.006433121050000E+00
   2.057226218580000E+00   2.109305149490000E+00   2.162702464820000E+00
   2.217451539620000E+00   2.273586593840000E+00   2.331142713730000E+00
   2.390155873730000E+00   2.450662958990000E+00   2.512701788410000E+00
   2.576311138270000E+00   2.641530766490000E+00   2.708401437450000E+00
   2.776964947520000E+00   2.847264151100000E+00   2.919342987490000E+00
   2.993246508320000E+00   3.069020905680000E+00   3.146713541040000E+00
   3.226372974830000E+00   3.308048996790000E+00   3.391792657090000E+00
   3.477656298240000E+00   3.565693587820000E+00   3.655959551990000E+00
   3.748510609920000E+00   3.843404609050000E+00   3.940700861190000E+00
   4.040460179690000E+00   4.142744917350000E+00   4.247619005480000E+00
   4.355147993790000E+00   4.465399091400000E+00   4.578441208830000E+00
   4.694345001090000E+00   4.813182911820000E+00   4.935029218590000E+00
   5.059960079290000E+00   5.188053579790000E+00   5.319389782690000E+00
   5.454050777400000E+00   5.592120731420000E+00   5.733685942970000E+00
   5.878834894910000E+00   6.027658310060000E+00   6.180249207900000E+00
   6.336702962720000E+00   6.497117363190000E+00   6.661592673540000E+00
   6.830231696200000E+00   7.003139836050000E+00   7.180425166290000E+00
   7.362198496030000E+00   7.548573439530000E+00   7.739666487180000E+00
   7.935597078370000E+00   8.136487676090001E+00   8.342463843499999E+00
   8.553654322410001E+00   8.770191113750000E+00   8.992209560059999E+00
   9.219848430100001E+00   9.453250005570000E+00   9.692560170049999E+00
   9.937928500190001E+00   1.018950835920000E+01   1.044745699260000E+01
   1.071193562680000E+01   1.098310956950000E+01   1.126114831320000E+01
   1.154622564130000E+01   1.183851973620000E+01   1.213821329140000E+01
   1.244549362510000E+01   1.276055279740000E+01   1.308358773070000E+01
   1.341480033220000E+01   1.375439762070000E+01   1.410259185540000E+01
   1.445960066920000E+01   1.482564720410000E+01   1.520096025120000E+01
   1.558577439330000E+01   1.598033015180000E+01   1.638487413680000E+01
   1.679965920160000E+01   1.722494460030000E+01   1.766099615020000E+01
   1.810808639750000E+01   1.856649478840000E+01   1.903650784290000E+01
   1.951841933460000E+01   2.001253047370000E+01   2.051915009590000E+01
   2.103859485490000E+01   2.157118942050000E+01   2.211726668180000E+01
   2.267716795480000E+01   2.325124319600000E+01   2.383985122100000E+01
   2.444335992920000E+01   2.506214653310000E+01   2.569659779440000E+01
   2.634711026590000E+01   2.701409053900000E+01   2.769795549810000E+01
   2.839913258110000E+01   2.911806004640000E+01   2.985518724710000E+01
   3.061097491180000E+01   3.138589543230000E+01   3.218043315920000E+01
   3.299508470440000E+01   3.383035925170000E+01   3.468677887480000E+01
   3.556487886380000E+01   3.646520805990000E+01   3.738832919820000E+01
   3.833481925930000E+01   3.930526983030000E+01   4.030028747460000E+01
   4.132049411040000E+01   4.236652740020000E+01   4.343904114880000E+01
   4.453870571220000E+01   4.566620841650000E+01   4.682225398770000E+01
   4.800756499190000E+01   4.922288228700000E+01   5.046896548590000E+01
   5.174659343110000E+01   5.305656468180000E+01   5.439969801260000E+01
   5.577683292550000E+01   5.718883017480000E+01   5.863657230450000E+01
   6.012096420080000E+01   6.164293365680000E+01   6.320343195310000E+01
   6.480343445180000E+01   6.644394120660000E+01   6.812597758760000E+01
   6.985059492230000E+01   7.161887115270000E+01   7.343191150900000E+01
   7.529084920040000E+01   7.719684612360000E+01   7.915109358850000E+01
   8.115481306360000E+01   8.320925693869999E+01   8.531570930810000E+01
   8.747548677310000E+01   8.968993926490000E+01   9.196045088850001E+01
   9.428844078749999E+01   9.667536403130001E+01   9.912271252470001E+01
   1.016320159400000E+02   1.042048426740000E+02   1.068428008270000E+02
   1.095475392080000E+02   1.123207483680000E+02   1.151641616510000E+02
   1.180795562850000E+02   1.210687544850000E+02   1.241336245980000E+02
   1.272760822670000E+02   1.304980916300000E+02   1.338016665500000E+02
   1.371888718660000E+02   1.406618246930000E+02   1.442226957400000E+02
   1.478737106660000E+02   1.516171514750000E+02   1.554553579390000E+02
   1.593907290630000E+02   1.634257245810000E+02   1.675628664970000E+02
   1.718047406590000E+02   1.761539983760000E+02   1.806133580770000E+02
   1.851856070070000E+02   1.898736029690000E+02   1.946802761140000E+02
   1.996086307680000E+02   2.046617473150000E+02
    </PP_R>
    <PP_RAB>
   1.228439895100000E-09   1.259537999100000E-09   1.291423355350000E-09
   1.324115893240000E-09   1.357636046670000E-09   1.392004766820000E-09
   1.427243535260000E-09   1.463374377370000E-09   1.500419876110000E-09
   1.538403186110000E-09   1.577348048180000E-09   1.617278804130000E-09
   1.658220411980000E-09   1.700198461560000E-09   1.743239190530000E-09
   1.787369500740000E-09   1.832616975080000E-09   1.879009894670000E-09
   1.926577256630000E-09   1.975348792080000E-09   2.025354984830000E-09
   2.076627090370000E-09   2.129197155450000E-09   2.183098038060000E-09
   2.238363428010000E-09   2.295027867970000E-09   2.353126775050000E-09
   2.412696462970000E-09   2.473774164720000E-09   2.536398055850000E-09
   2.600607278330000E-09   2.666441965020000E-09   2.733943264730000E-09
   2.803153367990000E-09   2.874115533350000E-09   2.946874114480000E-09
   3.021474587850000E-09   3.097963581210000E-09   3.176388902640000E-09
   3.256799570550000E-09   3.339245844200000E-09   3.423779255210000E-09
   3.510452639700000E-09   3.599320171370000E-09   3.690437395310000E-09
   3.783861262770000E-09   3.879650166680000E-09   3.977863978240000E-09
   4.078564084280000E-09   4.181813425640000E-09   4.287676536520000E-09
   4.396219584810000E-09   4.507510413460000E-09   4.621618582840000E-09
   4.738615414280000E-09   4.858574034610000E-09   4.981569421870000E-09
   5.107678452190000E-09   5.236979947810000E-09   5.369554726370000E-09
   5.505485651430000E-09   5.644857684240000E-09   5.787757936860000E-09
   5.934275726600000E-09   6.084502631840000E-09   6.238532549300000E-09
   6.396461752680000E-09   6.558388952880000E-09   6.724415359670000E-09
   6.894644744950000E-09   7.069183507650000E-09   7.248140740150000E-09
   7.431628296570000E-09   7.619760862590000E-09   7.812656027190001E-09
   8.010434356130000E-09   8.213219467310000E-09   8.421138108020000E-09
   8.634320234180000E-09   8.852899091550000E-09   9.077011299050001E-09
   9.306796934080000E-09   9.542399620170001E-09   9.783966616640000E-09
   1.003164891080000E-08   1.028560131200000E-08   1.054598254890000E-08
   1.081295536810000E-08   1.108668663650000E-08   1.136734744490000E-08
   1.165511321550000E-08   1.195016381130000E-08   1.225268364850000E-08
   1.256286181180000E-08   1.288089217270000E-08   1.320697351050000E-08
   1.354130963670000E-08   1.388410952220000E-08   1.423558742810000E-08
   1.459596303960000E-08   1.496546160310000E-08   1.534431406730000E-08
   1.573275722730000E-08   1.613103387270000E-08   1.653939293930000E-08
   1.695808966500000E-08   1.738738574870000E-08   1.782754951460000E-08
   1.827885607920000E-08   1.874158752390000E-08   1.921603307090000E-08
   1.970248926410000E-08   2.020126015440000E-08   2.071265749000000E-08
   2.123700091070000E-08   2.177461814830000E-08   2.232584523110000E-08
   2.289102669400000E-08   2.347051579370000E-08   2.406467472980000E-08
   2.467387487090000E-08   2.529849698710000E-08   2.593893148740000E-08
   2.659557866430000E-08   2.726884894360000E-08   2.795916314110000E-08
   2.866695272580000E-08   2.939266008910000E-08   3.013673882180000E-08
   3.089965399730000E-08   3.168188246240000E-08   3.248391313540000E-08
   3.330624731150000E-08   3.414939897640000E-08   3.501389512740000E-08
   3.590027610250000E-08   3.680909591890000E-08   3.774092261850000E-08
   3.869633862330000E-08   3.967594109940000E-08   4.068034233030000E-08
   4.171017009930000E-08   4.276606808250000E-08   4.384869625040000E-08
   4.495873128080000E-08   4.609686698180000E-08   4.726381472520000E-08
   4.846030389140000E-08   4.968708232510000E-08   5.094491680270000E-08
   5.223459351160000E-08   5.355691854190000E-08   5.491271838970000E-08
   5.630284047410000E-08   5.772815366660000E-08   5.918954883430000E-08
   6.068793939680001E-08   6.222426189700000E-08   6.379947658650001E-08
   6.541456802570000E-08   6.707054569929999E-08   6.876844464730000E-08
   7.050932611180000E-08   7.229427820040000E-08   7.412441656630001E-08
   7.600088510550000E-08   7.792485667190000E-08   7.989753381040000E-08
   8.192014950839999E-08   8.399396796660000E-08   8.612028538899999E-08
   8.830043079319999E-08   9.053576684110001E-08   9.282769069050000E-08
   9.517763486830000E-08   9.758706816619999E-08   1.000574965580000E-07
   1.025904641430000E-07   1.051875541080000E-07   1.078503897180000E-07
   1.105806353320000E-07   1.133799974430000E-07   1.162502257430000E-07
   1.191931142190000E-07   1.222105022710000E-07   1.253042758650000E-07
   1.284763687110000E-07   1.317287634700000E-07   1.350634929930000E-07
   1.384826415970000E-07   1.419883463600000E-07   1.455827984610000E-07
   1.492682445500000E-07   1.530469881510000E-07   1.569213911020000E-07
   1.608938750310000E-07   1.649669228690000E-07   1.691430804040000E-07
   1.734249578700000E-07   1.778152315810000E-07   1.823166455990000E-07
   1.869320134560000E-07   1.916642199070000E-07   1.965162227340000E-07
   2.014910545970000E-07   2.065918249290000E-07   2.118217218760000E-07
   2.171840142950000E-07   2.226820537930000E-07   2.283192768240000E-07
   2.340992068350000E-07   2.400254564700000E-07   2.461017298300000E-07
   2.523318247820000E-07   2.587196353380000E-07   2.652691540890000E-07
   2.719844746960000E-07   2.788697944540000E-07   2.859294169110000E-07
   2.931677545610000E-07   3.005893316020000E-07   3.081987867600000E-07
   3.160008761920000E-07   3.240004764590000E-07   3.322025875700000E-07
   3.406123361130000E-07   3.492349784540000E-07   3.580759040250000E-07
   3.671406386920000E-07   3.764348482100000E-07   3.859643417620000E-07
   3.957350755920000E-07   4.057531567260000E-07   4.160248467920000E-07
   4.265565659300000E-07   4.373548968070000E-07   4.484265887310000E-07
   4.597785618720000E-07   4.714179115800000E-07   4.833519128290000E-07
   4.955880247580000E-07   5.081338953350000E-07   5.209973661380000E-07
   5.341864772550000E-07   5.477094723090000E-07   5.615748036130000E-07
   5.757911374500000E-07   5.903673594910000E-07   6.053125803500000E-07
   6.206361412770000E-07   6.363476199950000E-07   6.524568366910000E-07
   6.689738601490000E-07   6.859090140460000E-07   7.032728834050000E-07
   7.210763212100001E-07   7.393304551890000E-07   7.580466947700000E-07
   7.772367382110001E-07   7.969125799150000E-07   8.170865179230000E-07
   8.377711616030000E-07   8.589794395310000E-07   8.807246075700000E-07
   9.030202571600001E-07   9.258803238060000E-07   9.493190957940000E-07
   9.733512231200001E-07   9.979917266459999E-07   1.023256007490000E-06
   1.049159856650000E-06   1.075719464870000E-06   1.102951432770000E-06
   1.130872781220000E-06   1.159500961980000E-06   1.188853868580000E-06
   1.218949847550000E-06   1.249807709850000E-06   1.281446742660000E-06
   1.313886721390000E-06   1.347147922100000E-06   1.381251134110000E-06
   1.416217673050000E-06   1.452069394130000E-06   1.488828705850000E-06