<UPF version="2.0.1">
  <PP_INFO>
    Generated by new atomic code, or converted to UPF format
    Author: 
    Generation date: 
    Pseudopotential type: US
    Element: Pt
    Functional:  SLA  PZ   NOGX NOGC
    Suggested minimum cutoff for wavefunctions:   0. Ry
    Suggested minimum cutoff for charge density:   0. Ry
    The Pseudo was generated with a Non-Relativistic Calculation
    L component and cutoff radius for Local Potential:  0   0.0000
    Valence configuration: 
    nl pn  l   occ       Rcut    Rcut US       E pseu
    5P  2  1  6.00      0.000      0.000     0.000000
    5D  3  2  9.50      0.000      0.000     0.000000
    6S  1  0  0.00      0.000      0.000     0.000000
    6P  2  1  0.00      0.000      0.000     0.000000
    Generation configuration: not available.
  </PP_INFO>
    <!-- END OF HUMAN READABLE SECTION -->
  <PP_HEADER generated="Generated by new atomic code, or converted to UPF format" author="" date="" comment="" element="Pt" pseudo_type="US" relativistic="no" is_ultrasoft="true" is_paw="false" is_coulomb="false" has_so="false" has_wfc="false" has_gipaw="false" paw_as_gipaw="false" core_correction="true" functional=" SLA  PZ   NOGX NOGC" z_valence="16.000000000000000" total_psenergy="-209.99244520600001" wfc_cutoff="0.0000000000000000" rho_cutoff="0.0000000000000000" l_max="2" l_max_rho="0" l_local="0" mesh_size="985" number_of_wfc="4" number_of_proj="6"/>
  <PP_MESH>
    <PP_R>
   0.000000000000000E+00   1.964793536720000E-07   3.962608042750000E-07
   5.993998479420000E-07   8.059529134920000E-07   1.015977378100000E-06
   1.229531583260000E-06   1.446674850940000E-06   1.667467500110000E-06
   1.891970863500000E-06   2.120247304590000E-06   2.352360234960000E-06
   2.588374131930000E-06   2.828354556420000E-06   3.072368171220000E-06
   3.320482759440000E-06   3.572767243410000E-06   3.829291703770000E-06
   4.090127398960000E-06   4.355346785020000E-06   4.625023535710000E-06
   4.899232562970000E-06   5.178050037730000E-06   5.461553411090000E-06
   5.749821435810000E-06   6.042934188200000E-06   6.340973090340000E-06
   6.644020932740000E-06   6.952161897300000E-06   7.265481580710000E-06
   7.584067018240000E-06   7.908006707900001E-06   8.237390635000000E-06
   8.572310297200000E-06   8.912858729900001E-06   9.259130532070000E-06
   9.611221892560000E-06   9.969230616770000E-06   1.033325615390000E-05
   1.070339962440000E-05   1.107976384850000E-05   1.146245337400000E-05
   1.185157450610000E-05   1.224723533650000E-05   1.264954577360000E-05
   1.305861757270000E-05   1.347456436770000E-05   1.389750170200000E-05
   1.432754706080000E-05   1.476481990400000E-05   1.520944169910000E-05
   1.566153595490000E-05   1.612122825620000E-05   1.658864629820000E-05
   1.706391992220000E-05   1.754718115180000E-05   1.803856422920000E-05
   1.853820565300000E-05   1.904624421570000E-05   1.956282104220000E-05
   2.008807962960000E-05   2.062216588640000E-05   2.116522817320000E-05
   2.171741734430000E-05   2.227888678900000E-05   2.284979247470000E-05
   2.343029298990000E-05   2.402054958860000E-05   2.462072623470000E-05
   2.523098964790000E-05   2.585150934950000E-05   2.648245771030000E-05
   2.712400999770000E-05   2.777634442480000E-05   2.843964219980000E-05
   2.911408757630000E-05   2.979986790470000E-05   3.049717368390000E-05
   3.120619861430000E-05   3.192713965200000E-05   3.266019706300000E-05
   3.340557447890000E-05   3.416347895410000E-05   3.493412102220000E-05
   3.571771475550000E-05   3.651447782400000E-05   3.732463155590000E-05
   3.814840099900000E-05   3.898601498360000E-05   3.983770618550000E-05
   4.070371119110000E-05   4.158427056300000E-05   4.247962890670000E-05
   4.339003493840000E-05   4.431574155480000E-05   4.525700590230000E-05
   4.621408944950000E-05   4.718725805890000E-05   4.817678206160000E-05
   4.918293633150000E-05   5.020600036250000E-05   5.124625834570000E-05
   5.230399924810000E-05   5.337951689370000E-05   5.447311004420000E-05
   5.558508248240000E-05   5.671574309680000E-05   5.786540596710000E-05
   5.903439045140000E-05   6.022302127510000E-05   6.143162862120000E-05
   6.266054822160001E-05   6.391012145090000E-05   6.518069542070000E-05
   6.647262307640000E-05   6.778626329520001E-05   6.912198098540000E-05
   7.048014718850000E-05   7.186113918150001E-05   7.326534058220000E-05
   7.469314145549999E-05   7.614493842210000E-05   7.762113476809999E-05
   7.912214055770001E-05   8.064837274639999E-05   8.220025529760000E-05
   8.377821929960000E-05   8.538270308600000E-05   8.701415235700000E-05
   8.867302030349999E-05   9.035976773270000E-05   9.207486319650000E-05
   9.381878312140000E-05   9.559201194060000E-05   9.739504222919999E-05
   9.922837484060000E-05   1.010925190460000E-04   1.029879926740000E-04
   1.049153222580000E-04   1.068750431800000E-04   1.088676998200000E-04
   1.108938457050000E-04   1.129540436670000E-04   1.150488659970000E-04
   1.171788946040000E-04   1.193447211740000E-04   1.215469473420000E-04
   1.237861848500000E-04   1.260630557230000E-04   1.283781924410000E-04
   1.307322381110000E-04   1.331258466510000E-04   1.355596829660000E-04
   1.380344231390000E-04   1.405507546130000E-04   1.431093763840000E-04
   1.457109991990000E-04   1.483563457460000E-04   1.510461508610000E-04
   1.537811617300000E-04   1.565621380950000E-04   1.593898524670000E-04
   1.622650903420000E-04   1.651886504140000E-04   1.681613448020000E-04
   1.711839992750000E-04   1.742574534770000E-04   1.773825611660000E-04
   1.805601904480000E-04   1.837912240170000E-04   1.870765594030000E-04
   1.904171092220000E-04   1.938138014240000E-04   1.972675795580000E-04
   2.007794030280000E-04   2.043502473640000E-04   2.079811044890000E-04
   2.116729829990000E-04   2.154269084390000E-04   2.192439235900000E-04
   2.231250887590000E-04   2.270714820720000E-04   2.310841997740000E-04
   2.351643565360000E-04   2.393130857610000E-04   2.435315399000000E-04
   2.478208907720000E-04   2.521823298930000E-04   2.566170688000000E-04
   2.611263393950000E-04   2.657113942810000E-04   2.703735071150000E-04
   2.751139729570000E-04   2.799341086340000E-04   2.848352531030000E-04
   2.898187678260000E-04   2.948860371440000E-04   3.000384686640000E-04
   3.052774936510000E-04   3.106045674230000E-04   3.160211697560000E-04
   3.215288052970000E-04   3.271290039820000E-04   3.328233214550000E-04
   3.386133395090000E-04   3.445006665200000E-04   3.504869378940000E-04
   3.565738165220000E-04   3.627629932430000E-04   3.690561873130000E-04
   3.754551468820000E-04   3.819616494790000E-04   3.885775025090000E-04
   3.953045437500000E-04   4.021446418690000E-04   4.090996969370000E-04
   4.161716409590000E-04   4.233624384080000E-04   4.306740867740000E-04
   4.381086171190000E-04   4.456680946370000E-04   4.533546192320000E-04
   4.611703260990000E-04   4.691173863170000E-04   4.771980074550000E-04
   4.854144341820000E-04   4.937689488900000E-04   5.022638723340000E-04
   5.109015642670000E-04   5.196844241040000E-04   5.286148915860000E-04
   5.376954474550000E-04   5.469286141460000E-04   5.563169564860001E-04
   5.658630824100000E-04   5.755696436800000E-04   5.854393366260000E-04
   5.954749028920000E-04   6.056791302010000E-04   6.160548531240000E-04
   6.266049538760000E-04   6.373323631060000E-04   6.482400607200000E-04
   6.593310767040000E-04   6.706084919660000E-04   6.820754391960000E-04
   6.937351037290000E-04   7.055907244360000E-04   7.176455946220000E-04
   7.299030629400000E-04   7.423665343190000E-04   7.550394709160000E-04
   7.679253930730000E-04   7.810278802940000E-04   7.943505722450000E-04
   8.078971697580000E-04   8.216714358650000E-04   8.356771968390000E-04
   8.499183432590000E-04   8.643988310910000E-04   8.791226827850000E-04
   8.940939883960000E-04   9.093169067150000E-04   9.247956664290000E-04
   9.405345672920000E-04   9.565379813230000E-04   9.728103540180000E-04
   9.893562055850000E-04   1.006180132200000E-03   1.023286807280000E-03
   1.040680982800000E-03   1.058367490580000E-03   1.076351243650000E-03
   1.094637237610000E-03   1.113230552040000E-03   1.132136351840000E-03
   1.151359888770000E-03   1.170906502810000E-03   1.190781623700000E-03
   1.210990772440000E-03   1.231539562810000E-03   1.252433702940000E-03
   1.273678996890000E-03   1.295281346270000E-03   1.317246751870000E-03
   1.339581315340000E-03   1.362291240860000E-03   1.385382836890000E-03
   1.408862517910000E-03   1.432736806210000E-03   1.457012333680000E-03
   1.481695843690000E-03   1.506794192930000E-03   1.532314353310000E-03
   1.558263413940000E-03   1.584648583060000E-03   1.611477190050000E-03
   1.638756687460000E-03   1.666494653130000E-03   1.694698792210000E-03
   1.723376939370000E-03   1.752537060950000E-03   1.782187257160000E-03
   1.812335764370000E-03   1.842990957350000E-03   1.874161351630000E-03
   1.905855605860000E-03   1.938082524190000E-03   1.970851058770000E-03
   2.004170312150000E-03   2.038049539920000E-03   2.072498153190000E-03
   2.107525721230000E-03   2.143141974150000E-03   2.179356805590000E-03
   2.216180275450000E-03   2.253622612710000E-03   2.291694218250000E-03
   2.330405667780000E-03   2.369767714720000E-03   2.409791293230000E-03
   2.450487521220000E-03   2.491867703460000E-03   2.533943334720000E-03
   2.576726102940000E-03   2.620227892490000E-03   2.664460787490000E-03
   2.709437075140000E-03   2.755169249140000E-03   2.801670013170000E-03
   2.848952284400000E-03   2.897029197100000E-03   2.945914106270000E-03
   2.995620591390000E-03   3.046162460110000E-03   3.097553752180000E-03
   3.149808743280000E-03   3.202941949030000E-03   3.256968128990000E-03
   3.311902290770000E-03   3.367759694230000E-03   3.424555855670000E-03
   3.482306552160000E-03   3.541027825940000E-03   3.600735988840000E-03
   3.661447626850000E-03   3.723179604720000E-03   3.785949070590000E-03
   3.849773460850000E-03   3.914670504900000E-03   3.980658230120000E-03
   4.047754966840000E-03   4.115979353490000E-03   4.185350341720000E-03
   4.255887201700000E-03   4.327609527450000E-03   4.400537242310000E-03
   4.474690604430000E-03   4.550090212460000E-03   4.626757011210000E-03
   4.704712297510000E-03   4.783977726110000E-03   4.864575315690000E-03
   4.946527454990000E-03   5.029856909010000E-03   5.114586825380000E-03
   5.200740740710000E-03   5.288342587200000E-03   5.377416699270000E-03
   5.467987820300000E-03   5.560081109510000E-03   5.653722148960000E-03
   5.748936950660000E-03   5.845751963780000E-03   5.944194081990000E-03
   6.044290650970000E-03   6.146069475950000E-03   6.249558829500000E-03
   6.354787459310000E-03   6.461784596240000E-03   6.570579962400000E-03
   6.681203779430000E-03   6.793686776880000E-03   6.908060200740000E-03
   7.024355822160000E-03   7.142605946210000E-03   7.262843420920000E-03
   7.385101646350000E-03   7.509414583900000E-03   7.635816765760000E-03
   7.764343304450000E-03   7.895029902610000E-03   8.027912862919999E-03
   8.163029098160000E-03   8.300416141490000E-03   8.440112156860000E-03
   8.582155949620000E-03   8.726586977290000E-03   8.873445360520000E-03
   9.022771894270001E-03   9.174608059080000E-03   9.328996032639999E-03
   9.485978701490001E-03   9.645599672940000E-03   9.807903287169999E-03
   9.972934629560001E-03   1.014073954320000E-02   1.031136464170000E-02
   1.048485732200000E-02   1.066126577750000E-02   1.084063901190000E-02
   1.102302685200000E-02   1.120847996250000E-02   1.139704985930000E-02
   1.158878892400000E-02   1.178375041880000E-02   1.198198850080000E-02
   1.218355823760000E-02   1.238851562200000E-02   1.259691758790000E-02
   1.280882202610000E-02   1.302428780030000E-02   1.324337476340000E-02
   1.346614377450000E-02   1.369265671510000E-02   1.392297650710000E-02
   1.415716712960000E-02   1.439529363710000E-02   1.463742217730000E-02
   1.488362000980000E-02   1.513395552440000E-02   1.538849826030000E-02
   1.564731892560000E-02   1.591048941640000E-02   1.617808283750000E-02
   1.645017352210000E-02   1.672683705260000E-02   1.700815028170000E-02
   1.729419135400000E-02   1.758503972700000E-02   1.788077619390000E-02
   1.818148290550000E-02   1.848724339350000E-02   1.879814259320000E-02
   1.911426686760000E-02   1.943570403110000E-02   1.976254337360000E-02
   2.009487568620000E-02   2.043279328540000E-02   2.077639003940000E-02
   2.112576139400000E-02   2.148100439900000E-02   2.184221773530000E-02
   2.220950174230000E-02   2.258295844570000E-02   2.296269158580000E-02
   2.334880664650000E-02   2.374141088450000E-02   2.414061335900000E-02
   2.454652496220000E-02   2.495925844990000E-02   2.537892847290000E-02
   2.580565160900000E-02   2.623954639520000E-02   2.668073336040000E-02
   2.712933505960000E-02   2.758547610710000E-02   2.804928321180000E-02
   2.852088521190000E-02   2.900041311100000E-02   2.948800011450000E-02
   2.998378166620000E-02   3.048789548640000E-02   3.100048161010000E-02
   3.152168242550000E-02   3.205164271410000E-02   3.259050969030000E-02
   3.313843304300000E-02   3.369556497650000E-02   3.426206025340000E-02
   3.483807623710000E-02   3.542377293570000E-02   3.601931304660000E-02
   3.662486200130000E-02   3.724058801170000E-02   3.786666211700000E-02
   3.850325823050000E-02   3.915055318860000E-02   3.980872679970000E-02
   4.047796189390000E-02   4.115844437420000E-02   4.185036326790000E-02
   4.255391077910000E-02   4.326928234230000E-02   4.399667667620000E-02
   4.473629583970000E-02   4.548834528720000E-02   4.625303392620000E-02
   4.703057417500000E-02   4.782118202220000E-02   4.862507708610000E-02
   4.944248267600000E-02   5.027362585440000E-02   5.111873749950000E-02
   5.197805237020000E-02   5.285180917060000E-02   5.374025061640000E-02
   5.464362350260000E-02   5.556217877200000E-02   5.649617158480000E-02
   5.744586138940000E-02   5.841151199460000E-02   5.939339164290000E-02
   6.039177308490000E-02   6.140693365540000E-02   6.243915534970000E-02
   6.348872490290000E-02   6.455593386880000E-02   6.564107870120001E-02
   6.674446083610000E-02   6.786638677570000E-02   6.900716817329999E-02
   7.016712192000001E-02   7.134657023260001E-02   7.254584074320000E-02
   7.376526659030000E-02   7.500518651099999E-02   7.626594493550000E-02
   7.754789208270001E-02   7.885138405710000E-02   8.017678294830000E-02
   8.152445693120000E-02   8.289478036830000E-02   8.428813391390000E-02
   8.570490461940000E-02   8.714548604150001E-02   8.861027835099999E-02
   9.009968844390000E-02   9.161413005490000E-02   9.315402387200000E-02
   9.471979765340000E-02   9.631188634620000E-02   9.793073220760000E-02
   9.957678492749999E-02   1.012505017530000E-01   1.029523476170000E-01
   1.046827952640000E-01   1.064423253860000E-01   1.082314267530000E-01
   1.100505963490000E-01   1.119003395100000E-01   1.137811700650000E-01
   1.156936104800000E-01   1.176381920010000E-01   1.196154548010000E-01
   1.216259481330000E-01   1.236702304800000E-01   1.257488697120000E-01
   1.278624432420000E-01   1.300115381860000E-01   1.321967515300000E-01
   1.344186902920000E-01   1.366779716900000E-01   1.389752233180000E-01
   1.413110833160000E-01   1.436862005490000E-01   1.461012347870000E-01
   1.485568568880000E-01   1.510537489850000E-01   1.535926046760000E-01
   1.561741292150000E-01   1.587990397070000E-01   1.614680653130000E-01
   1.641819474450000E-01   1.669414399760000E-01   1.697473094510000E-01
   1.726003352950000E-01   1.755013100340000E-01   1.784510395130000E-01
   1.814503431210000E-01   1.845000540150000E-01   1.876010193590000E-01
   1.907541005500000E-01   1.939601734660000E-01   1.972201287020000E-01
   2.005348718230000E-01   2.039053236130000E-01   2.073324203280000E-01
   2.108171139630000E-01   2.143603725110000E-01   2.179631802320000E-01
   2.216265379310000E-01   2.253514632290000E-01   2.291389908520000E-01
   2.329901729160000E-01   2.369060792190000E-01   2.408877975360000E-01
   2.449364339260000E-01   2.490531130380000E-01   2.532389784190000E-01
   2.574951928360000E-01   2.618229385990000E-01   2.662234178870000E-01
   2.706978530840000E-01   2.752474871170000E-01   2.798735838030000E-01
   2.845774281980000E-01   2.893603269570000E-01   2.942236086910000E-01
   2.991686243460000E-01   3.041967475670000E-01   3.093093750890000E-01
   3.145079271170000E-01   3.197938477290000E-01   3.251686052690000E-01
   3.306336927590000E-01   3.361906283160000E-01   3.418409555680000E-01
   3.475862440860000E-01   3.534280898210000E-01   3.593681155460000E-01
   3.654079713050000E-01   3.715493348760000E-01   3.777939122320000E-01
   3.841434380180000E-01   3.905996760330000E-01   3.971644197160000E-01
   4.038394926510000E-01   4.106267490670000E-01   4.175280743570000E-01
   4.245453855990000E-01   4.316806320930000E-01   4.389357958960000E-01
   4.463128923800000E-01   4.538139707840000E-01   4.614411147910000E-01
   4.691964430990000E-01   4.770821100170000E-01   4.851003060590000E-01
   4.932532585520000E-01   5.015432322590000E-01   5.099725300030000E-01
   5.185434933090000E-01   5.272585030569999E-01   5.361199801370000E-01
   5.451303861290000E-01   5.542922239820000E-01   5.636080387080000E-01
   5.730804180940000E-01   5.827119934180000E-01   5.925054401790000E-01
   6.024634788410000E-01   6.125888755920000E-01   6.228844431050000E-01
   6.333530413280000E-01   6.439975782710000E-01   6.548210108190000E-01
   6.658263455500000E-01   6.770166395720000E-01   6.883950013730000E-01
   6.999645916820000E-01   7.117286243480000E-01   7.236903672330000E-01
   7.358531431220000E-01   7.482203306400000E-01   7.607953651980000E-01
   7.735817399410000E-01   7.865830067230000E-01   7.998027770890000E-01
   8.132447232840000E-01   8.269125792680000E-01   8.408101417550000E-01
   8.549412712690000E-01   8.693098932140000E-01   8.839199989670000E-01
   8.987756469840000E-01   9.138809639290000E-01   9.292401458220000E-01
   9.448574592000000E-01   9.607372423070000E-01   9.768839062950000E-01
   9.933019364530000E-01   1.009995893450000E+00   1.026970414600000E+00
   1.044230215170000E+00   1.061780089640000E+00   1.079624913100000E+00
   1.097769642570000E+00   1.116219318350000E+00   1.134979065470000E+00
   1.154054095110000E+00   1.173449706000000E+00   1.193171285930000E+00
   1.213224313240000E+00   1.233614358360000E+00   1.254347085320000E+00
   1.275428253330000E+00   1.296863718420000E+00   1.318659435020000E+00
   1.340821457630000E+00   1.363355942520000E+00   1.386269149400000E+00
   1.409567443210000E+00   1.433257295840000E+00   1.457345287960000E+00
   1.481838110840000E+00   1.506742568190000E+00   1.532065578070000E+00
   1.557814174830000E+00   1.583995511010000E+00   1.610616859380000E+00
   1.637685614920000E+00   1.665209296920000E+00   1.693195551000000E+00
   1.721652151320000E+00   1.750587002660000E+00   1.780008142680000E+00
   1.809923744100000E+00   1.840342116990000E+00   1.871271711110000E+00
   1.902721118210000E+00   1.934699074440000E+00   1.967214462760000E+00
   2.000276315440000E+00   2.033893816540000E+00   2.068076304470000E+00
   2.102833274590000E+00   2.138174381830000E+00   2.174109443390000E+00
   2.210648441470000E+00   2.247801526030000E+00   2.285579017600000E+00
   2.323991410170000E+00   2.363049374100000E+00   2.402763759080000E+00
   2.443145597140000E+00   2.484206105700000E+00   2.525956690740000E+00
   2.568408949910000E+00   2.611574675770000E+00   2.655465859080000E+00
   2.700094692110000E+00   2.745473572060000E+00   2.791615104460000E+00
   2.838532106700000E+00   2.886237611570000E+00   2.934744870920000E+00
   2.984067359300000E+00   3.034218777720000E+00   3.085213057440000E+00
   3.137064363880000E+00   3.189787100500000E+00   3.243395912850000E+00
   3.297905692610000E+00   3.353331581750000E+00   3.409688976680000E+00
   3.466993532620000E+00   3.525261167850000E+00   3.584508068220000E+00
   3.644750691560000E+00   3.706005772340000E+00   3.768290326240000E+00
   3.831621654940000E+00   3.896017350860000E+00   3.961495302130000E+00
   4.028073697480000E+00   4.095771031340000E+00   4.164606108960000E+00
   4.234598051640000E+00   4.305766302030000E+00   4.378130629540000E+00
   4.451711135860000E+00   4.526528260470000E+00   4.602602786400000E+00
   4.679955845940000E+00   4.758608926560000E+00   4.838583876840000E+00
   4.919902912550000E+00   5.002588622850000E+00   5.086663976510000E+00
   5.172152328340000E+00   5.259077425660000E+00   5.347463414880000E+00
   5.437334848240000E+00   5.528716690600000E+00   5.621634326390000E+00
   5.716113566670000E+00   5.812180656280000E+00   5.909862281130000E+00
   6.009185575650000E+00   6.110178130260000E+00   6.212867999120000E+00
   6.317283707840000E+00   6.423454261450000E+00   6.531409152470000E+00
   6.641178369060000E+00   6.752792403360000E+00   6.866282260000000E+00
   6.981679464670000E+00   7.099016072880000E+00   7.218324678900000E+00
   7.339638424770000E+00   7.462991009530000E+00   7.588416698580000E+00
   7.715950333210000E+00   7.845627340230000E+00   7.977483741880000E+00
   8.111556165770001E+00   8.247881855119999E+00   8.386498679040001E+00
   8.527445143110000E+00   8.670760400010000E+00   8.816484260470000E+00
   8.964657204280000E+00   9.115320391539999E+00   9.268515674090001E+00
   9.424285607180000E+00   9.582673461230000E+00   9.743723233880001E+00
   9.907479662220000E+00   1.007398823520000E+01   1.024329520630000E+01
   1.041544760620000E+01   1.059049325630000E+01   1.076848078140000E+01
   1.094945962360000E+01   1.113348005610000E+01   1.132059319680000E+01
   1.151085102270000E+01   1.170430638450000E+01   1.190101302100000E+01
   1.210102557420000E+01   1.230439960450000E+01   1.251119160600000E+01
   1.272145902210000E+01   1.293526026190000E+01   1.315265471600000E+01
   1.337370277310000E+01   1.359846583680000E+01   1.382700634290000E+01
   1.405938777620000E+01   1.429567468870000E+01   1.453593271710000E+01
   1.478022860130000E+01   1.502863020280000E+01   1.528120652380000E+01
   1.553802772580000E+01   1.579916514980000E+01   1.606469133560000E+01
   1.633468004220000E+01   1.660920626820000E+01   1.688834627270000E+01
   1.717217759630000E+01   1.746077908290000E+01   1.775423090150000E+01
   1.805261456820000E+01   1.835601296950000E+01   1.866451038450000E+01
   1.897819250900000E+01   1.929714647890000E+01   1.962146089460000E+01
   1.995122584560000E+01   2.028653293520000E+01   2.062747530660000E+01
   2.097414766810000E+01   2.132664631990000E+01   2.168506918050000E+01
   2.204951581400000E+01   2.242008745810000E+01   2.279688705170000E+01
   2.318001926380000E+01   2.356959052240000E+01   2.396570904420000E+01
   2.436848486480000E+01   2.477802986900000E+01   2.519445782170000E+01
   2.561788440030000E+01   2.604842722580000E+01   2.648620589630000E+01
   2.693134201970000E+01   2.738395924790000E+01   2.784418331080000E+01
   2.831214205130000E+01   2.878796546110000E+01   2.927178571630000E+01
   2.976373721450000E+01   3.026395661210000E+01   3.077258286220000E+01
   3.128975725310000E+01   3.181562344770000E+01   3.235032752330000E+01
   3.289401801220000E+01   3.344684594310000E+01   3.400896488290000E+01
   3.458053097930000E+01   3.516170300440000E+01   3.575264239850000E+01
   3.635351331530000E+01   3.696448266720000E+01   3.758572017200000E+01
   3.821739839950000E+01   3.885969282000000E+01   3.951278185270000E+01
   4.017684691550000E+01   4.085207247510000E+01   4.153864609850000E+01
   4.223675850520000E+01   4.294660361950000E+01   4.366837862540000E+01
   4.440228402050000E+01   4.514852367210000E+01   4.590730487390000E+01
   4.667883840320000E+01   4.746333857990000E+01   4.826102332580000E+01
   4.907211422510000E+01   4.989683658600000E+01   5.073541950340000E+01
   5.158809592230000E+01   5.245510270290000E+01   5.333668068580000E+01
   5.423307475960000E+01   5.514453392840000E+01   5.607131138100000E+01
   5.701366456180000E+01   5.797185524140000E+01   5.894614959020000E+01
   5.993681825170000E+01   6.094413641800000E+01   6.196838390620000E+01
   6.300984523610000E+01   6.406880970920000E+01   6.514557148910001E+01
   6.624042968329999E+01   6.735368842590000E+01   6.848565696279999E+01
   6.963664973690000E+01   7.080698647590000E+01   7.199699228070000E+01
   7.320699771629999E+01   7.443733890300000E+01   7.568835761010000E+01
   7.696040135100000E+01   7.825382347930000E+01   7.956898328710000E+01
   8.090624610520000E+01   8.226598340410000E+01   8.364857289720000E+01
   8.505439864610000E+01   8.648385116700000E+01   8.793732753930000E+01
   8.941523151570000E+01   9.091797363460000E+01   9.244597133400001E+01
   9.399964906760000E+01   9.557943842250000E+01   9.718577823930001E+01
   9.881911473370000E+01   1.004799016210000E+02   1.021686002410000E+02
   1.038856796880000E+02   1.056316169400000E+02   1.074068969900000E+02
   1.092120129830000E+02   1.110474663520000E+02   1.129137669570000E+02
   1.148114332260000E+02   1.167409923010000E+02   1.187029801840000E+02
   1.206979418830000E+02   1.227264315680000E+02   1.247890127200000E+02
   1.268862582930000E+02   1.290187508680000E+02   1.311870828180000E+02
   1.333918564700000E+02   1.356336842770000E+02   1.379131889830000E+02
   1.402310037990000E+02   1.425877725750000E+02   1.449841499870000E+02
   1.474208017090000E+02   1.498984046040000E+02   1.524176469130000E+02
   1.549792284400000E+02
    </PP_R>
    <PP_RAB>
   1.948465738360000E-07   1.981212297310000E-07   2.014509205740000E-07
   2.048365713020000E-07   2.082791223950000E-07   2.117795301380000E-07
   2.153387668910000E-07   2.189578213520000E-07   2.226376988380000E-07
   2.263794215610000E-07   2.301840289130000E-07   2.340525777520000E-07
   2.379861427020000E-07   2.419858164430000E-07   2.460527100230000E-07
   2.501879531610000E-07   2.543926945600000E-07   2.586681022330000E-07
   2.630153638190000E-07   2.674356869200000E-07   2.719302994320000E-07
   2.765004498860000E-07   2.811474077990000E-07   2.858724640210000E-07
   2.906769311000000E-07   2.955621436400000E-07   3.005294586750000E-07
   3.055802560490000E-07   3.107159387910000E-07   3.159379335150000E-07
   3.212476908070000E-07   3.266466856350000E-07   3.321364177530000E-07
   3.377184121230000E-07   3.433942193350000E-07   3.491654160380000E-07
   3.550336053790000E-07   3.610004174490000E-07   3.670675097350000E-07
   3.732365675770000E-07   3.795093046440000E-07   3.858874634030000E-07
   3.923728156040000E-07   3.989671627780000E-07   4.056723367290000E-07
   4.124902000490000E-07   4.194226466320000E-07   4.264716022030000E-07
   4.336390248500000E-07   4.409269055700000E-07   4.483372688210000E-07
   4.558721730850000E-07   4.635337114400000E-07   4.713240121390000E-07
   4.792452392060000E-07   4.872995930330000E-07   4.954893109900000E-07
   5.038166680530000E-07   5.122839774310000E-07   5.208935912070000E-07
   5.296479009970000E-07   5.385493386100000E-07   5.476003767240000E-07
   5.568035295740000E-07   5.661613536530000E-07   5.756764484140000E-07
   5.853514570020000E-07   5.951890669800000E-07   6.051920110820000E-07
   6.153630679680000E-07   6.257050629950000E-07   6.362208690080000E-07
   6.469134071320000E-07   6.577856475830000E-07   6.688406105000000E-07
   6.800813667760000E-07   6.915110389150000E-07   7.031328019010000E-07
   7.149498840750000E-07   7.269655680360000E-07   7.391831915520000E-07
   7.516061484850000E-07   7.642378897370000E-07   7.770819242060000E-07
   7.901418197610000E-07   8.034212042360000E-07   8.169237664340000E-07
   8.306532571530000E-07   8.446134902290000E-07   8.588083435950000E-07
   8.732417603560000E-07   8.879177498870000E-07   9.028403889480000E-07
   9.180138228100000E-07   9.334422664160000E-07   9.491300055420000E-07
   9.650813979940000E-07   9.813008748180001E-07   9.977929415289999E-07
   1.014562179360000E-06   1.031613246550000E-06   1.048950879600000E-06
   1.066579894640000E-06   1.084505188730000E-06   1.102731741240000E-06
   1.121264615210000E-06   1.140108958780000E-06   1.159270006620000E-06
   1.178753081360000E-06   1.198563595090000E-06   1.218707050860000E-06
   1.239189044200000E-06   1.260015264680000E-06   1.281191497510000E-06
   1.302723625110000E-06   1.324617628760000E-06   1.346879590260000E-06
   1.369515693640000E-06   1.392532226860000E-06   1.415935583540000E-06
   1.439732264760000E-06   1.463928880870000E-06   1.488532153310000E-06
   1.513548916460000E-06   1.538986119610000E-06   1.564850828800000E-06
   1.591150228830000E-06   1.617891625270000E-06   1.645082446450000E-06
   1.672730245560000E-06   1.700842702720000E-06   1.729427627110000E-06
   1.758492959190000E-06   1.788046772850000E-06   1.818097277660000E-06
   1.848652821180000E-06   1.879721891260000E-06   1.911313118400000E-06
   1.943435278140000E-06   1.976097293510000E-06   2.009308237500000E-06
   2.043077335590000E-06   2.077413968290000E-06   2.112327673790000E-06
   2.147828150560000E-06   2.183925260070000E-06   2.220629029530000E-06
   2.257949654670000E-06   2.295897502560000E-06   2.334483114520000E-06
   2.373717209030000E-06   2.413610684680000E-06   2.454174623280000E-06
   2.495420292820000E-06   2.537359150710000E-06   2.580002846910000E-06
   2.623363227150000E-06   2.667452336270000E-06   2.712282421520000E-06
   2.757865936000000E-06   2.804215542080000E-06   2.851344114960000E-06
   2.899264746200000E-06   2.947990747400000E-06   2.997535653880000E-06
   3.047913228420000E-06   3.099137465120000E-06   3.151222593280000E-06
   3.204183081300000E-06   3.258033640780000E-06   3.312789230560000E-06
   3.368465060870000E-06   3.425076597570000E-06   3.482639566470000E-06
   3.541169957640000E-06   3.600684029900000E-06   3.661198315330000E-06
   3.722729623820000E-06   3.785295047820000E-06   3.848911967000000E-06
   3.913598053150000E-06   3.979371275030000E-06   4.046249903410000E-06
   4.114252516110000E-06   4.183398003190000E-06   4.253705572170000E-06