<UPF version="2.0.1">
  <PP_INFO>
    Generated by new atomic code, or converted to UPF format
    Author: 
    Generation date: 
    Pseudopotential type: US
    Element: Rb
    Functional: SLA  PZ   NOGX NOGC
    Suggested minimum cutoff for wavefunctions:   0. Ry
    Suggested minimum cutoff for charge density:   0. Ry
    The Pseudo was generated with a Non-Relativistic Calculation
    L component and cutoff radius for Local Potential:  0   0.0000
    Valence configuration: 
    nl pn  l   occ       Rcut    Rcut US       E pseu
    4S  1  0  2.00      0.000      0.000     0.000000
    4P  2  1  6.00      0.000      0.000     0.000000
    5S  1  0  0.50      0.000      0.000     0.000000
    4D  3  2  0.00      0.000      0.000     0.000000
    Generation configuration: not available.
  </PP_INFO>
    <!-- END OF HUMAN READABLE SECTION -->
  <PP_HEADER generated="Generated by new atomic code, or converted to UPF format" author="" date="" comment="" element="Rb" pseudo_type="US" relativistic="no" is_ultrasoft="true" is_paw="false" is_coulomb="false" has_so="false" has_wfc="false" has_gipaw="false" paw_as_gipaw="false" core_correction="true" functional="SLA  PZ   NOGX NOGC" z_valence="9.0000000000000000" total_psenergy="-53.063370989100001" wfc_cutoff="0.0000000000000000" rho_cutoff="0.0000000000000000" l_max="2" l_max_rho="0" l_local="0" mesh_size="881" number_of_wfc="4" number_of_proj="6"/>
  <PP_MESH>
    <PP_R>
   0.000000000000000E+00   1.145157002160000E-06   2.309888865080000E-06
   3.494530193670000E-06   4.699421312480000E-06   5.924908363400000E-06
   7.171343405160000E-06   8.439084514400000E-06   9.728495888640000E-06
   1.103994795080000E-05   1.237381745570000E-05   1.373048759820000E-05
   1.511034812340000E-05   1.651379543850000E-05   1.794123272680000E-05
   1.939307006340000E-05   2.086972453310000E-05   2.237162035000000E-05
   2.389918897990000E-05   2.545286926370000E-05   2.703310754350000E-05
   2.864035779140000E-05   3.027508173910000E-05   3.193774901130000E-05
   3.362883726010000E-05   3.534883230230000E-05   3.709822825940000E-05
   3.887752769880000E-05   4.068724177900000E-05   4.252789039570000E-05
   4.440000233170000E-05   4.630411540850000E-05   4.824077664090000E-05
   5.021054239420000E-05   5.221397854410000E-05   5.425166063890000E-05
   5.632417406540000E-05   5.843211421640000E-05   6.057608666240000E-05
   6.275670732530000E-05   6.497460265510000E-05   6.723040981019999E-05
   6.952477684040000E-05   7.185836287290000E-05   7.423183830190000E-05
   7.664588498080000E-05   7.910119641870000E-05   8.159847797890000E-05
   8.413844708220000E-05   8.672183341249999E-05   8.934937912670001E-05
   9.202183906780000E-05   9.473998098190000E-05   9.750458573850000E-05
   1.003164475550000E-04   1.031763742250000E-04   1.060851873500000E-04
   1.090437225760000E-04   1.120528298330000E-04   1.151133735790000E-04
   1.182262330490000E-04   1.213923025070000E-04   1.246124915030000E-04
   1.278877251370000E-04   1.312189443180000E-04   1.346071060430000E-04
   1.380531836630000E-04   1.415581671710000E-04   1.451230634810000E-04
   1.487488967170000E-04   1.524367085130000E-04   1.561875583040000E-04
   1.600025236380000E-04   1.638827004800000E-04   1.678292035300000E-04
   1.718431665420000E-04   1.759257426500000E-04   1.800781046980000E-04
   1.843014455810000E-04   1.885969785810000E-04   1.929659377240000E-04
   1.974095781250000E-04   2.019291763580000E-04   2.065260308150000E-04
   2.112014620840000E-04   2.159568133240000E-04   2.207934506580000E-04
   2.257127635570000E-04   2.307161652440000E-04   2.358050931010000E-04
   2.409810090770000E-04   2.462454001130000E-04   2.515997785660000E-04
   2.570456826470000E-04   2.625846768570000E-04   2.682183524440000E-04
   2.739483278520000E-04   2.797762491930000E-04   2.857037907150000E-04
   2.917326552870000E-04   2.978645748860000E-04   3.041013110920000E-04
   3.104446555990000E-04   3.168964307280000E-04   3.234584899480000E-04
   3.301327184130000E-04   3.369210334990000E-04   3.438253853570000E-04
   3.508477574750000E-04   3.579901672430000E-04   3.652546665380000E-04
   3.726433423110000E-04   3.801583171830000E-04   3.878017500640000E-04
   3.955758367620000E-04   4.034828106220000E-04   4.115249431660000E-04
   4.197045447420000E-04   4.280239651910000E-04   4.364855945220000E-04
   4.450918635970000E-04   4.538452448310000E-04   4.627482529010000E-04
   4.718034454690000E-04   4.810134239160000E-04   4.903808340920000E-04
   4.999083670700000E-04   5.095987599290000E-04   5.194547965290000E-04
   5.294793083200000E-04   5.396751751490000E-04   5.500453260920000E-04
   5.605927402930000E-04   5.713204478200000E-04   5.822315305350000E-04
   5.933291229810000E-04   6.046164132830000E-04   6.160966440590000E-04
   6.277731133590000E-04   6.396491756050000E-04   6.517282425610000E-04
   6.640137843090000E-04   6.765093302470000E-04   6.892184701040000E-04
   7.021448549700000E-04   7.152921983450000E-04   7.286642772070000E-04
   7.422649330940000E-04   7.560980732120000E-04   7.701676715550000E-04
   7.844777700460000E-04   7.990324797000000E-04   8.138359818020000E-04
   8.288925291120000E-04   8.442064470860000E-04   8.597821351150000E-04
   8.756240677930000E-04   8.917367962020000E-04   9.081249492150000E-04
   9.247932348320000E-04   9.417464415300000E-04   9.589894396360000E-04
   9.765271827300000E-04   9.943647090670000E-04   1.012507143020000E-03
   1.030959696560000E-03   1.049727670760000E-03   1.068816457280000E-03
   1.088231539960000E-03   1.107978496390000E-03   1.128062999480000E-03
   1.148490819120000E-03   1.169267823820000E-03   1.190399982430000E-03
   1.211893365790000E-03   1.233754148540000E-03   1.255988610870000E-03
   1.278603140300000E-03   1.301604233550000E-03   1.324998498390000E-03
   1.348792655540000E-03   1.372993540590000E-03   1.397608106000000E-03
   1.422643423060000E-03   1.448106683910000E-03   1.474005203680000E-03
   1.500346422500000E-03   1.527137907690000E-03   1.554387355930000E-03
   1.582102595460000E-03   1.610291588320000E-03   1.638962432680000E-03
   1.668123365110000E-03   1.697782762990000E-03   1.727949146870000E-03
   1.758631182990000E-03   1.789837685700000E-03   1.821577620020000E-03
   1.853860104210000E-03   1.886694412430000E-03   1.920089977310000E-03
   1.954056392770000E-03   1.988603416700000E-03   2.023740973790000E-03
   2.059479158380000E-03   2.095828237360000E-03   2.132798653110000E-03
   2.170401026530000E-03   2.208646160030000E-03   2.247545040730000E-03
   2.287108843500000E-03   2.327348934260000E-03   2.368276873210000E-03
   2.409904418160000E-03   2.452243527900000E-03   2.495306365620000E-03
   2.539105302460000E-03   2.583652921000000E-03   2.628962018910000E-03
   2.675045612610000E-03   2.721916941030000E-03   2.769589469390000E-03
   2.818076893100000E-03   2.867393141640000E-03   2.917552382620000E-03
   2.968569025830000E-03   3.020457727360000E-03   3.073233393820000E-03
   3.126911186640000E-03   3.181506526420000E-03   3.237035097330000E-03
   3.293512851680000E-03   3.350956014410000E-03   3.409381087830000E-03
   3.468804856350000E-03   3.529244391260000E-03   3.590717055670000E-03
   3.653240509490000E-03   3.716832714490000E-03   3.781511939480000E-03
   3.847296765560000E-03   3.914206091430000E-03   3.982259138850000E-03
   4.051475458130000E-03   4.121874933800000E-03   4.193477790250000E-03
   4.266304597600000E-03   4.340376277590000E-03   4.415714109570000E-03
   4.492339736640000E-03   4.570275171870000E-03   4.649542804600000E-03
   4.730165406880000E-03   4.812166140030000E-03   4.895568561270000E-03
   4.980396630510000E-03   5.066674717200000E-03   5.154427607370000E-03
   5.243680510730000E-03   5.334459067910000E-03   5.426789357840000E-03
   5.520697905210000E-03   5.616211688140000E-03   5.713358145890000E-03
   5.812165186760000E-03   5.912661196090000E-03   6.014875044450000E-03
   6.118836095900000E-03   6.224574216430000E-03   6.332119782560000E-03
   6.441503690050000E-03   6.552757362790000E-03   6.665912761790000E-03
   6.781002394420000E-03   6.898059323690000E-03   7.017117177810000E-03
   7.138210159780000E-03   7.261373057280000E-03   7.386641252630000E-03
   7.514050732940000E-03   7.643638100520000E-03   7.775440583280000E-03
   7.909496045540001E-03   8.045842998840000E-03   8.184520613020000E-03
   8.325568727480000E-03   8.469027862600001E-03   8.614939231420000E-03
   8.763344751459999E-03   8.914287056750000E-03   9.067809510080000E-03
   9.223956215500000E-03   9.382772030929999E-03   9.544302581079999E-03
   9.708594270539999E-03   9.875694297160001E-03   1.004565066550000E-02
   1.021851220080000E-02   1.039432856280000E-02   1.057315026010000E-02
   1.075502866480000E-02   1.094001602690000E-02   1.112816548990000E-02
   1.131953110530000E-02   1.151416784890000E-02   1.171213163590000E-02
   1.191347933760000E-02   1.211826879730000E-02   1.232655884700000E-02
   1.253840932430000E-02   1.275388109000000E-02   1.297303604470000E-02
   1.319593714750000E-02   1.342264843370000E-02   1.365323503280000E-02
   1.388776318810000E-02   1.412630027480000E-02   1.436891482010000E-02
   1.461567652250000E-02   1.486665627190000E-02   1.512192616970000E-02
   1.538155955020000E-02   1.564563100100000E-02   1.591421638470000E-02
   1.618739286080000E-02   1.646523890740000E-02   1.674783434440000E-02
   1.703526035600000E-02   1.732759951410000E-02   1.762493580220000E-02
   1.792735463910000E-02   1.823494290400000E-02   1.854778896110000E-02
   1.886598268480000E-02   1.918961548620000E-02   1.951878033860000E-02
   1.985357180480000E-02   2.019408606390000E-02   2.054042093910000E-02
   2.089267592550000E-02   2.125095221940000E-02   2.161535274640000E-02
   2.198598219200000E-02   2.236294703060000E-02   2.274635555710000E-02
   2.313631791720000E-02   2.353294613960000E-02   2.393635416800000E-02
   2.434665789360000E-02   2.476397518880000E-02   2.518842594070000E-02
   2.562013208580000E-02   2.605921764500000E-02   2.650580875910000E-02
   2.696003372500000E-02   2.742202303270000E-02   2.789190940290000E-02
   2.836982782480000E-02   2.885591559520000E-02   2.935031235760000E-02
   2.985316014260000E-02   3.036460340880000E-02   3.088478908380000E-02
   3.141386660700000E-02   3.195198797200000E-02   3.249930777080000E-02
   3.305598323760000E-02   3.362217429470000E-02   3.419804359770000E-02
   3.478375658270000E-02   3.537948151390000E-02   3.598538953120000E-02
   3.660165470060000E-02   3.722845406290000E-02   3.786596768560000E-02
   3.851437871390000E-02   3.917387342390000E-02   3.984464127550000E-02
   4.052687496730000E-02   4.122077049210000E-02   4.192652719240000E-02
   4.264434781850000E-02   4.337443858640000E-02   4.411700923710000E-02
   4.487227309670000E-02   4.564044713790000E-02   4.642175204230000E-02
   4.721641226370000E-02   4.802465609250000E-02   4.884671572150000E-02
   4.968282731260000E-02   5.053323106450000E-02   5.139817128170000E-02
   5.227789644480000E-02   5.317265928180000E-02   5.408271684070000E-02
   5.500833056350000E-02   5.594976636110000E-02   5.690729468980000E-02
   5.788119062900000E-02   5.887173396000000E-02   5.987920924680000E-02
   6.090390591770000E-02   6.194611834800000E-02   6.300614594530000E-02
   6.408429323510000E-02   6.518086994800000E-02   6.629619110950000E-02
   6.743057712960000E-02   6.858435389560000E-02   6.975785286520000E-02
   7.095141116190000E-02   7.216537167200000E-02   7.340008314280000E-02
   7.465590028290001E-02   7.593318386450000E-02   7.723230082630000E-02
   7.855362437950000E-02   7.989753411470001E-02   8.126441611130000E-02
   8.265466304800000E-02   8.406867431590000E-02   8.550685613290000E-02
   8.696962166100000E-02   8.845739112430000E-02   8.997059193020000E-02
   9.150965879210000E-02   9.307503385410000E-02   9.466716681800000E-02
   9.628651507300000E-02   9.793354382640000E-02   9.960872623769999E-02
   1.013125435540000E-01   1.030454852500000E-01   1.048080491660000E-01
   1.066007416520000E-01   1.084240777140000E-01   1.102785811620000E-01
   1.121647847570000E-01   1.140832303710000E-01   1.160344691350000E-01
   1.180190616030000E-01   1.200375779090000E-01   1.220905979340000E-01
   1.241787114710000E-01   1.263025183950000E-01   1.284626288350000E-01
   1.306596633480000E-01   1.328942530990000E-01   1.351670400440000E-01
   1.374786771100000E-01   1.398298283850000E-01   1.422211693090000E-01
   1.446533868700000E-01   1.471271797950000E-01   1.496432587580000E-01
   1.522023465800000E-01   1.548051784360000E-01   1.574525020700000E-01
   1.601450780070000E-01   1.628836797720000E-01   1.656690941120000E-01
   1.685021212230000E-01   1.713835749780000E-01   1.743142831640000E-01
   1.772950877160000E-01   1.803268449620000E-01   1.834104258680000E-01
   1.865467162850000E-01   1.897366172090000E-01   1.929810450390000E-01
   1.962809318340000E-01   1.996372255880000E-01   2.030508905000000E-01
   2.065229072490000E-01   2.100542732800000E-01   2.136460030840000E-01
   2.172991284960000E-01   2.210146989890000E-01   2.247937819740000E-01
   2.286374631090000E-01   2.325468466080000E-01   2.365230555630000E-01
   2.405672322600000E-01   2.446805385130000E-01   2.488641559970000E-01
   2.531192865820000E-01   2.574471526870000E-01   2.618489976220000E-01
   2.663260859530000E-01   2.708797038620000E-01   2.755111595130000E-01
   2.802217834340000E-01   2.850129288980000E-01   2.898859723070000E-01
   2.948423135910000E-01   2.998833766130000E-01   3.050106095720000E-01
   3.102254854230000E-01   3.155295022980000E-01   3.209241839400000E-01
   3.264110801350000E-01   3.319917671630000E-01   3.376678482480000E-01
   3.434409540170000E-01   3.493127429720000E-01   3.552849019640000E-01
   3.613591466800000E-01   3.675372221320000E-01   3.738209031610000E-01
   3.802119949480000E-01   3.867123335300000E-01   3.933237863270000E-01
   4.000482526840000E-01   4.068876644080000E-01   4.138439863300000E-01
   4.209192168670000E-01   4.281153885950000E-01   4.354345688370000E-01
   4.428788602500000E-01   4.504504014350000E-01   4.581513675500000E-01
   4.659839709330000E-01   4.739504617390000E-01   4.820531285880000E-01
   4.902942992180000E-01   4.986763411590000E-01   5.072016624090000E-01
   5.158727121270000E-01   5.246919813390000E-01   5.336620036500000E-01
   5.427853559730000E-01   5.520646592720000E-01   5.615025793100000E-01
   5.711018274200000E-01   5.808651612790000E-01   5.907953857050000E-01
   6.008953534590000E-01   6.111679660650000E-01   6.216161746480000E-01
   6.322429807750000E-01   6.430514373210000E-01   6.540446493480000E-01
   6.652257749920000E-01   6.765980263740000E-01   6.881646705230000E-01
   6.999290303100000E-01   7.118944854100000E-01   7.240644732650000E-01
   7.364424900790000E-01   7.490320918150000E-01   7.618368952220000E-01
   7.748605788730000E-01   7.881068842200000E-01   8.015796166700000E-01
   8.152826466780000E-01   8.292199108610000E-01   8.433954131230000E-01
   8.578132258140000E-01   8.724774908900000E-01   8.873924211120000E-01
   9.025623012510000E-01   9.179914893200000E-01   9.336844178260000E-01
   9.496455950429999E-01   9.658796063090000E-01   9.823911153410000E-01
   9.991848655759999E-01   1.016265681530000E+00   1.033638470200000E+00
   1.051308222450000E+00   1.069280014450000E+00   1.087559009150000E+00
   1.106150457760000E+00   1.125059701230000E+00   1.144292171830000E+00
   1.163853394680000E+00   1.183748989330000E+00   1.203984671400000E+00
   1.224566254220000E+00   1.245499650470000E+00   1.266790873910000E+00
   1.288446041110000E+00   1.310471373170000E+00   1.332873197540000E+00
   1.355657949830000E+00   1.378832175660000E+00   1.402402532550000E+00
   1.426375791790000E+00   1.450758840430000E+00   1.475558683270000E+00
   1.500782444810000E+00   1.526437371350000E+00   1.552530833050000E+00
   1.579070326060000E+00   1.606063474670000E+00   1.633518033490000E+00
   1.661441889670000E+00   1.689843065200000E+00   1.718729719180000E+00
   1.748110150210000E+00   1.777992798700000E+00   1.808386249360000E+00
   1.839299233640000E+00   1.870740632240000E+00   1.902719477680000E+00
   1.935244956840000E+00   1.968326413680000E+00   2.001973351860000E+00
   2.036195437490000E+00   2.071002501900000E+00   2.106404544510000E+00
   2.142411735630000E+00   2.179034419430000E+00   2.216283116900000E+00
   2.254168528860000E+00   2.292701539070000E+00   2.331893217310000E+00
   2.371754822600000E+00   2.412297806400000E+00   2.453533815920000E+00
   2.495474697470000E+00   2.538132499860000E+00   2.581519477850000E+00
   2.625648095680000E+00   2.670531030640000E+00   2.716181176740000E+00
   2.762611648380000E+00   2.809835784120000E+00   2.857867150560000E+00
   2.906719546180000E+00   2.956407005320000E+00   3.006943802240000E+00
   3.058344455160000E+00   3.110623730510000E+00   3.163796647110000E+00
   3.217878480510000E+00   3.272884767380000E+00   3.328831309950000E+00
   3.385734180590000E+00   3.443609726390000E+00   3.502474573870000E+00
   3.562345633770000E+00   3.623240105880000E+00   3.685175484000000E+00
   3.748169560970000E+00   3.812240433780000E+00   3.877406508740000E+00
   3.943686506800000E+00   4.011099468930000E+00   4.079664761560000E+00
   4.149402082180000E+00   4.220331464970000E+00   4.292473286570000E+00
   4.365848271930000E+00   4.440477500260000E+00   4.516382411090000E+00
   4.593584810440000E+00   4.672106877060000E+00   4.751971168830000E+00
   4.833200629200000E+00   4.915818593830000E+00   4.999848797270000E+00
   5.085315379760000E+00   5.172242894200000E+00   5.260656313180000E+00
   5.350581036170000E+00   5.442042896790000E+00   5.535068170280000E+00
   5.629683580990000E+00   5.725916310110000E+00   5.823794003420000E+00
   5.923344779300000E+00   6.024597236760000E+00   6.127580463670000E+00
   6.232324045110000E+00   6.338858071910000E+00   6.447213149210000E+00
   6.557420405330000E+00   6.669511500690000E+00   6.783518636890000E+00
   6.899474565980000E+00   7.017412599840000E+00   7.137366619790000E+00
   7.259371086310000E+00   7.383461048910000E+00   7.509672156240000E+00
   7.638040666310000E+00   7.768603456900000E+00   7.901398036190000E+00
   8.036462553470001E+00   8.173835810190001E+00   8.313557271000001E+00
   8.455667075199999E+00   8.600206048160000E+00   8.747215713139999E+00
   8.896738303190000E+00   9.048816773230000E+00   9.203494812470000E+00
   9.360816856920000E+00   9.520828102170000E+00   9.683574516329999E+00
   9.849102853320000E+00   1.001746066620000E+01   1.018869632100000E+01
   1.036285901020000E+01   1.053999876760000E+01   1.072016648200000E+01
   1.090341391190000E+01   1.108979370090000E+01   1.127935939230000E+01
   1.147216544470000E+01   1.166826724740000E+01   1.186772113680000E+01
   1.207058441200000E+01   1.227691535180000E+01   1.248677323110000E+01
   1.270021833790000E+01   1.291731199100000E+01   1.313811655700000E+01
   1.336269546900000E+01   1.359111324400000E+01   1.382343550220000E+01
   1.405972898500000E+01   1.430006157530000E+01   1.454450231570000E+01
   1.479312142940000E+01   1.504599033990000E+01   1.530318169160000E+01
   1.556476937040000E+01   1.583082852560000E+01   1.610143559060000E+01
   1.637666830580000E+01   1.665660574020000E+01   1.694132831430000E+01
   1.723091782340000E+01   1.752545746110000E+01   1.782503184280000E+01
   1.812972703040000E+01   1.843963055710000E+01   1.875483145200000E+01
   1.907542026630000E+01   1.940148909900000E+01   1.973313162330000E+01
   2.007044311380000E+01   2.041352047340000E+01   2.076246226160000E+01
   2.111736872280000E+01   2.147834181460000E+01   2.184548523760000E+01
   2.221890446500000E+01   2.259870677300000E+01   2.298500127140000E+01
   2.337789893510000E+01   2.377751263600000E+01   2.418395717550000E+01
   2.459734931710000E+01   2.501780782040000E+01   2.544545347510000E+01
   2.588040913540000E+01   2.632279975570000E+01   2.677275242620000E+01
   2.723039640960000E+01   2.769586317830000E+01   2.816928645180000E+01
   2.865080223540000E+01   2.914054885930000E+01   2.963866701830000E+01
   3.014529981200000E+01   3.066059278620000E+01   3.118469397470000E+01
   3.171775394160000E+01   3.225992582470000E+01   3.281136537940000E+01
   3.337223102370000E+01   3.394268388350000E+01   3.452288783880000E+01
   3.511300957090000E+01   3.571321861050000E+01   3.632368738600000E+01
   3.694459127320000E+01   3.757610864580000E+01   3.821842092650000E+01
   3.887171263920000E+01   3.953617146210000E+01   4.021198828120000E+01
   4.089935724560000E+01   4.159847582320000E+01   4.230954485710000E+01
   4.303276862380000E+01   4.376835489150000E+01   4.451651497980000E+01
   4.527746382070000E+01   4.605142002000000E+01   4.683860592040000E+01
   4.763924766520000E+01   4.845357526320000E+01   4.928182265500000E+01
   5.012422778010000E+01   5.098103264510000E+01   5.185248339350000E+01
   5.273883037630000E+01   5.364032822370000E+01   5.455723591860000E+01
   5.548981687100000E+01   5.643833899320000E+01   5.740307477740000E+01
   5.838430137330000E+01   5.938230066850000E+01   6.039735936890000E+01
   6.142976908110000E+01   6.247982639650000E+01   6.354783297620000E+01
   6.463409563780000E+01   6.573892644370000E+01   6.686264279030000E+01
   6.800556749950000E+01   6.916802891160000E+01   7.035036097920000E+01
   7.155290336330000E+01   7.277600153130000E+01   7.402000685540000E+01
   7.528527671450000E+01   7.657217459589999E+01   7.788107020060001E+01
   7.921233954900001E+01   8.056636508890000E+01   8.194353580569999E+01
   8.334424733400000E+01   8.476890207100000E+01   8.621790929239999E+01
   8.769168526999999E+01   8.919065339120000E+01   9.071524428040000E+01
   9.226589592310000E+01   9.384305379150000E+01   9.544717097260001E+01
   9.707870829810000E+01   9.873813447729999E+01   1.004259262310000E+02
   1.021425684290000E+02   1.038885542300000E+02   1.056643852220000E+02
   1.074705715660000E+02   1.093076321440000E+02   1.111760947100000E+02
   1.130764960350000E+02   1.150093820690000E+02   1.169753080920000E+02
   1.189748388760000E+02   1.210085488490000E+02   1.230770222560000E+02
   1.251808533290000E+02   1.273206464570000E+02   1.294970163630000E+02
   1.317105882750000E+02   1.339619981100000E+02   1.362518926540000E+02
   1.385809297490000E+02   1.409497784820000E+02   1.433591193790000E+02
   1.458096445960000E+02   1.483020581220000E+02   1.508370759780000E+02
   1.534154264270000E+02   1.560378501780000E+02   1.587051006040000E+02
   1.614179439530000E+02   1.641771595730000E+02   1.669835401330000E+02
   1.698378918520000E+02   1.727410347300000E+02   1.756938027850000E+02
   1.786970442880000E+02   1.817516220130000E+02   1.848584134810000E+02
   1.880183112140000E+02   1.912322229890000E+02   1.945010720990000E+02
   1.978257976240000E+02   2.012073546910000E+02
    </PP_R>
    <PP_RAB>
   1.135479696140000E-06   1.154889136850000E-06   1.174630354870000E-06
   1.194709021450000E-06   1.215130904820000E-06   1.235901871790000E-06
   1.257027889440000E-06   1.278515026890000E-06   1.300369456960000E-06
   1.322597458010000E-06   1.345205415720000E-06   1.368199824920000E-06
   1.391587291450000E-06   1.415374534080000E-06   1.439568386420000E-06
   1.464175798910000E-06   1.489203840760000E-06   1.514659702070000E-06
   1.540550695800000E-06   1.566884259930000E-06   1.593667959590000E-06
   1.620909489210000E-06   1.648616674770000E-06   1.676797475990000E-06
   1.705459988680000E-06   1.734612447020000E-06   1.764263225960000E-06
   1.794420843570000E-06   1.825093963580000E-06   1.856291397760000E-06
   1.888022108540000E-06   1.920295211530000E-06   1.953119978190000E-06
   1.986505838410000E-06   2.020462383320000E-06   2.054999367980000E-06
   2.090126714190000E-06   2.125854513360000E-06   2.162193029400000E-06
   2.199152701650000E-06   2.236744147920000E-06   2.274978167500000E-06
   2.313865744280000E-06   2.353418049910000E-06   2.393646447020000E-06
   2.434562492420000E-06   2.476177940520000E-06   2.518504746630000E-06
   2.561555070410000E-06   2.605341279400000E-06   2.649875952520000E-06
   2.695171883730000E-06   2.741242085660000E-06   2.788099793400000E-06
   2.835758468260000E-06   2.884231801650000E-06   2.933533719030000E-06
   2.983678383870000E-06   3.034680201780000E-06   3.086553824590000E-06
   3.139314154590000E-06   3.192976348790000E-06   3.247555823310000E-06
   3.303068257780000E-06   3.359529599840000E-06   3.416956069740000E-06
   3.475364165000000E-06   3.534770665140000E-06   3.595192636490000E-06
   3.656647437110000E-06   3.719152721780000E-06   3.782726447060000E-06
   3.847386876450000E-06   3.913152585630000E-06   3.980042467840000E-06
   4.048075739220000E-06   4.117271944430000E-06   4.187650962200000E-06
   4.259233011060000E-06   4.332038655140000E-06   4.406088810100000E-06
   4.481404749110000E-06   4.558008108990000E-06   4.635920896390000E-06
   4.715165494160000E-06   4.795764667740000E-06   4.877741571700000E-06
   4.961119756420000E-06   5.045923174850000E-06   5.132176189370000E-06
   5.219903578790000E-06   5.309130545500000E-06   5.399882722680000E-06
   5.492186181680000E-06   5.586067439480000E-06   5.681553466370000E-06
   5.778671693620000E-06   5.877450021430000E-06   5.977916826900000E-06
   6.080100972200000E-06   6.184031812840000E-06   6.289739206170000E-06
   6.397253519850000E-06   6.506605640680000E-06   6.617826983400000E-06
   6.730949499750000E-06   6.846005687640000E-06   6.963028600500000E-06
   7.082051856720000E-06   7.203109649410000E-06   7.326236756110000E-06
   7.451468548860000E-06   7.578841004330000E-06   7.708390714170000E-06
   7.840154895490000E-06   7.974171401600001E-06   8.110478732850000E-06
   8.249116047690000E-06   8.390123173950000E-06   8.533540620239999E-06
   8.679409587620000E-06   8.827771981420001E-06   8.978670423280000E-06
   9.132148263410001E-06   9.288249593020000E-06   9.447019257009999E-06
   9.608502866819999E-06   9.772746813570001E-06   9.939798281370000E-06
   1.010970526090000E-05   1.028251656310000E-05   1.045828183330000E-05
   1.063705156550000E-05   1.081887711680000E-05   1.100381072220000E-05
   1.119190550940000E-05   1.138321551450000E-05   1.157779569710000E-05
   1.177570195650000E-05   1.197699114710000E-05   1.218172109550000E-05
   1.238995061660000E-05   1.260173953080000E-05   1.281714868100000E-05
   1.303623994990000E-05   1.325907627830000E-05   1.348572168270000E-05
   1.371624127400000E-05   1.395070127600000E-05   1.418916904450000E-05
   1.443171308680000E-05   1.467840308090000E-05   1.492930989620000E-05
   1.518450561330000E-05   1.544406354510000E-05   1.570805825740000E-05
   1.597656559090000E-05   1.624966268260000E-05   1.652742798790000E-05
   1.680994130350000E-05   1.709728378990000E-05   1.738953799510000E-05
   1.768678787800000E-05   1.798911883290000E-05   1.829661771340000E-05
   1.860937285830000E-05   1.892747411580000E-05   1.925101287030000E-05
   1.958008206840000E-05   1.991477624510000E-05   2.025519155170000E-05
   2.060142578280000E-05   2.095357840500000E-05   2.131175058470000E-05
   2.167604521800000E-05   2.204656695960000E-05   2.242342225330000E-05
   2.280671936230000E-05   2.319656840040000E-05   2.359308136380000E-05
   2.399637216290000E-05   2.440655665530000E-05   2.482375267920000E-05
   2.524808008690000E-05   2.567966077940000E-05   2.611861874160000E-05
   2.656508007750000E-05   2.701917304680000E-05   2.748102810170000E-05
   2.795077792420000E-05   2.842855746430000E-05   2.891450397890000E-05
   2.940875707100000E-05   2.991145872980000E-05   3.042275337200000E-05
   3.094278788250000E-05   3.147171165710000E-05   3.200967664560000E-05
   3.255683739470000E-05   3.311335109320000E-05   3.367937761670000E-05
   3.425507957360000E-05   3.484062235210000E-05   3.543617416720000E-05
   3.604190610940000E-05   3.665799219370000E-05   3.728460940990000E-05
   3.792193777280000E-05   3.857016037470000E-05   3.922946343730000E-05
   3.990003636550000E-05   4.058207180220000E-05   4.127576568280000E-05
   4.198131729210000E-05   4.269892932150000E-05   4.342880792700000E-05
   4.417116278870000E-05   4.492620717070000E-05   4.569415798270000E-05
   4.647523584200000E-05   4.726966513730000E-05   4.807767409260000E-05
   4.889949483330000E-05   4.973536345270000E-05   5.058552007960000E-05
   5.145020894750000E-05   5.232967846490000E-05   5.322418128620000E-05
   5.413397438490000E-05   5.505931912690000E-05   5.600048134590000E-05
   5.695773141940000E-05   5.793134434710000E-05   5.892159982890000E-05
   5.992878234620000E-05   6.095318124300000E-05   6.199509080930000E-05
   6.305481036550000E-05   6.413264434850000E-05   6.522890239930000E-05
   6.634389945140000E-05   6.747795582209999E-05   6.863139730370000E-05
   6.980455525770001E-05   7.099776670970000E-05   7.221137444610000E-05
   7.344572711309999E-05   7.470117931630000E-05   7.597809172270000E-05
   7.727683116460001E-05   7.859777074479999E-05   7.994128994360000E-05
   8.130777472800000E-05   8.269761766280000E-05   8.411121802280000E-05
   8.554898190810000E-05   8.701132236050000E-05   8.849865948210000E-05
   9.001142055599999E-05   9.155004016930000E-05   9.311496033750000E-05
   9.470663063190000E-05   9.632550830870001E-05   9.797205844010000E-05
   9.964675404800000E-05   1.013500762400000E-04   1.030825143480000E-04
   1.048445660670000E-04   1.066367376020000E-04   1.084595438070000E-04
   1.103135083410000E-04   1.121991638110000E-04   1.141170519300000E-04
   1.160677236690000E-04   1.180517394200000E-04   1.200696691500000E-04
   1.221220925740000E-04   1.242095993110000E-04   1.263327890630000E-04
   1.284922717800000E-04   1.306886678400000E-04   1.329226082260000E-04
   1.351947347050000E-04   1.375057000160000E-04   1.398561680520000E-04
   1.422468140600000E-04   1.446783248250000E-04   1.471513988730000E-04
   1.496667466700000E-04   1.522250908270000E-04   1.548271663080000E-04