<UPF version="2.0.1">
  <PP_INFO>
    Generated by new atomic code, or converted to UPF format
    Author: 
    Generation date: 
    Pseudopotential type: US
    Element: Re
    Functional: SLA  PZ   NOGX NOGC
    Suggested minimum cutoff for wavefunctions:   0. Ry
    Suggested minimum cutoff for charge density:   0. Ry
    The Pseudo was generated with a Non-Relativistic Calculation
    L component and cutoff radius for Local Potential:  0   0.0000
    Valence configuration: 
    nl pn  l   occ       Rcut    Rcut US       E pseu
    5S  1  0  2.00      0.000      0.000     0.000000
    5P  2  1  6.00      0.000      0.000     0.000000
    5D  3  2  4.50      0.000      0.000     0.000000
    6S  1  0  2.00      0.000      0.000     0.000000
    6P  2  1  0.00      0.000      0.000     0.000000
    Generation configuration: not available.
  </PP_INFO>
    <!-- END OF HUMAN READABLE SECTION -->
  <PP_HEADER generated="Generated by new atomic code, or converted to UPF format" author="" date="" comment="" element="Re" pseudo_type="US" relativistic="no" is_ultrasoft="true" is_paw="false" is_coulomb="false" has_so="false" has_wfc="false" has_gipaw="false" paw_as_gipaw="false" core_correction="true" functional="SLA  PZ   NOGX NOGC" z_valence="15.000000000000000" total_psenergy="-189.49860733099999" wfc_cutoff="0.0000000000000000" rho_cutoff="0.0000000000000000" l_max="3" l_max_rho="0" l_local="0" mesh_size="981" number_of_wfc="5" number_of_proj="8"/>
  <PP_MESH>
    <PP_R>
   0.000000000000000E+00   2.043385278180000E-07   4.121112364460000E-07
   6.233758418600000E-07   8.381910300320000E-07   1.056616473230000E-06
   1.278712846590000E-06   1.504541844970000E-06   1.734166200120000E-06
   1.967649698040000E-06   2.205057196770000E-06   2.446454644360000E-06
   2.691909097200000E-06   2.941488738680000E-06   3.195262898070000E-06
   3.453302069820000E-06   3.715677933150000E-06   3.982463371920000E-06
   4.253732494920000E-06   4.529560656420000E-06   4.810024477140000E-06
   5.095201865480000E-06   5.385172039240000E-06   5.680015547540000E-06
   5.979814293250000E-06   6.284651555720000E-06   6.594612013950000E-06
   6.909781770040000E-06   7.230248373190000E-06   7.556100843940000E-06
   7.887429698970000E-06   8.224326976210000E-06   8.566886260399999E-06
   8.915202709090001E-06   9.269373079100000E-06   9.629495753360000E-06
   9.995670768260001E-06   1.036799984140000E-05   1.074658640000000E-05
   1.113153560940000E-05   1.152295440240000E-05   1.192095150890000E-05
   1.232563748630000E-05   1.273712475000000E-05   1.315552760450000E-05
   1.358096227560000E-05   1.401354694240000E-05   1.445340177000000E-05
   1.490064894320000E-05   1.535541270010000E-05   1.581781936700000E-05
   1.628799739310000E-05   1.676607738640000E-05   1.725219215010000E-05
   1.774647671910000E-05   1.824906839780000E-05   1.876010679840000E-05
   1.927973387910000E-05   1.980809398430000E-05   2.034533388390000E-05
   2.089160281480000E-05   2.144705252180000E-05   2.201183730020000E-05
   2.258611403810000E-05   2.317004226050000E-05   2.376378417360000E-05
   2.436750470950000E-05   2.498137157220000E-05   2.560555528410000E-05
   2.624022923380000E-05   2.688556972350000E-05   2.754175601870000E-05
   2.820897039760000E-05   2.888739820180000E-05   2.957722788780000E-05
   3.027865107940000E-05   3.099186262090000E-05   3.171706063120000E-05
   3.245444655890000E-05   3.320422523810000E-05   3.396660494550000E-05
   3.474179745810000E-05   3.553001811220000E-05   3.633148586310000E-05
   3.714642334570000E-05   3.797505693690000E-05   3.881761681810000E-05
   3.967433703900000E-05   4.054545558290000E-05   4.143121443290000E-05
   4.233185963880000E-05   4.324764138560000E-05   4.417881406290000E-05
   4.512563633600000E-05   4.608837121690000E-05   4.706728613840000E-05
   4.806265302740000E-05   4.907474838130000E-05   5.010385334400000E-05
   5.115025378480000E-05   5.221424037700000E-05   5.329610867950000E-05
   5.439615921810000E-05   5.551469756950000E-05   5.665203444590000E-05
   5.780848578170000E-05   5.898437282070000E-05   6.018002220580000E-05
   6.139576606940000E-05   6.263194212610000E-05   6.388889376599999E-05
   6.516697015049999E-05   6.646652630890000E-05   6.778792323750001E-05
   6.913152799950000E-05   7.049771382700000E-05   7.188686022480000E-05
   7.329935307600000E-05   7.473558474870000E-05   7.619595420550000E-05
   7.768086711370000E-05   7.919073595900001E-05   8.072598015880000E-05
   8.228702618000000E-05   8.387430765630000E-05   8.548826550950000E-05
   8.712934807160000E-05   8.879801120940000E-05   9.049471845130000E-05
   9.221994111559999E-05   9.397415844200000E-05   9.575785772439999E-05
   9.757153444620000E-05   9.941569241820000E-05   1.012908439180000E-04
   1.031975098340000E-04   1.051362198070000E-04   1.071075123810000E-04
   1.091119351490000E-04   1.111500449080000E-04   1.132224078130000E-04
   1.153295995330000E-04   1.174722054140000E-04   1.196508206370000E-04
   1.218660503880000E-04   1.241185100210000E-04   1.264088252360000E-04
   1.287376322440000E-04   1.311055779520000E-04   1.335133201390000E-04
   1.359615276360000E-04   1.384508805170000E-04   1.409820702850000E-04
   1.435558000650000E-04   1.461727847970000E-04   1.488337514400000E-04
   1.515394391670000E-04   1.542905995760000E-04   1.570879968960000E-04
   1.599324081990000E-04   1.628246236180000E-04   1.657654465660000E-04
   1.687556939550000E-04   1.717961964300000E-04   1.748877985940000E-04
   1.780313592460000E-04   1.812277516160000E-04   1.844778636130000E-04
   1.877825980660000E-04   1.911428729770000E-04   1.945596217790000E-04
   1.980337935910000E-04   2.015663534810000E-04   2.051582827400000E-04
   2.088105791490000E-04   2.125242572590000E-04   2.163003486690000E-04
   2.201399023190000E-04   2.240439847770000E-04   2.280136805340000E-04
   2.320500923090000E-04   2.361543413540000E-04   2.403275677650000E-04
   2.445709307980000E-04   2.488856091910000E-04   2.532728014960000E-04
   2.577337264030000E-04   2.622696230890000E-04   2.668817515520000E-04
   2.715713929710000E-04   2.763398500530000E-04   2.811884473990000E-04
   2.861185318750000E-04   2.911314729790000E-04   2.962286632270000E-04
   3.014115185390000E-04   3.066814786300000E-04   3.120400074110000E-04
   3.174885933970000E-04   3.230287501190000E-04   3.286620165460000E-04
   3.343899575090000E-04   3.402141641410000E-04   3.461362543130000E-04
   3.521578730900000E-04   3.582806931810000E-04   3.645064154090000E-04
   3.708367691820000E-04   3.772735129730000E-04   3.838184348050000E-04
   3.904733527570000E-04   3.972401154580000E-04   4.041206026090000E-04
   4.111167255000000E-04   4.182304275440000E-04   4.254636848150000E-04
   4.328185065970000E-04   4.402969359440000E-04   4.479010502450000E-04
   4.556329618040000E-04   4.634948184230000E-04   4.714888040010000E-04
   4.796171391420000E-04   4.878820817700000E-04   4.962859277530000E-04
   5.048310115490000E-04   5.135197068460000E-04   5.223544272270000E-04
   5.313376268369999E-04   5.404718010690000E-04   5.497594872500000E-04
   5.592032653530000E-04   5.688057587120000E-04   5.785696347460000E-04
   5.884976057070000E-04   5.985924294280000E-04   6.088569100910000E-04
   6.192938990080000E-04   6.299062954090000E-04   6.406970472490000E-04
   6.516691520310000E-04   6.628256576300000E-04   6.741696631490000E-04
   6.857043197720000E-04   6.974328316450000E-04   7.093584567640000E-04
   7.214845078780000E-04   7.338143534139999E-04   7.463514184070000E-04
   7.590991854570000E-04   7.720611956920000E-04   7.852410497530000E-04
   7.986424087960000E-04   8.122689955060000E-04   8.261245951350000E-04
   8.402130565490000E-04   8.545382933000000E-04   8.691042847120000E-04
   8.839150769890000E-04   8.989747843340000E-04   9.142875900970000E-04
   9.298577479320001E-04   9.456895829830000E-04   9.617874930860000E-04
   9.781559499840000E-04   9.947995005759999E-04   1.011722768180000E-03
   1.028930453810000E-03   1.046427337490000E-03   1.064218279570000E-03
   1.082308222110000E-03   1.100702190200000E-03   1.119405293390000E-03
   1.138422727120000E-03   1.157759774120000E-03   1.177421805920000E-03
   1.197414284320000E-03   1.217742762920000E-03   1.238412888640000E-03
   1.259430403330000E-03   1.280801145320000E-03   1.302531051050000E-03
   1.324626156760000E-03   1.347092600120000E-03   1.369936621950000E-03
   1.393164567950000E-03   1.416782890490000E-03   1.440798150360000E-03
   1.465217018620000E-03   1.490046278450000E-03   1.515292827030000E-03
   1.540963677440000E-03   1.567065960640000E-03   1.593606927440000E-03
   1.620593950500000E-03   1.648034526380000E-03   1.675936277650000E-03
   1.704306954960000E-03   1.733154439260000E-03   1.762486743900000E-03
   1.792312016950000E-03   1.822638543390000E-03   1.853474747450000E-03
   1.884829194950000E-03   1.916710595650000E-03   1.949127805700000E-03
   1.982089830090000E-03   2.015605825160000E-03   2.049685101120000E-03
   2.084337124640000E-03   2.119571521520000E-03   2.155398079320000E-03
   2.191826750080000E-03   2.228867653120000E-03   2.266531077810000E-03
   2.304827486470000E-03   2.343767517210000E-03   2.383361986980000E-03
   2.423621894500000E-03   2.464558423310000E-03   2.506182944960000E-03
   2.548507022070000E-03   2.591542411600000E-03   2.635301068110000E-03
   2.679795147050000E-03   2.725037008190000E-03   2.771039218990000E-03
   2.817814558150000E-03   2.865376019110000E-03   2.913736813690000E-03
   2.962910375770000E-03   3.012910364980000E-03   3.063750670530000E-03
   3.115445415040000E-03   3.168008958520000E-03   3.221455902270000E-03
   3.275801093010000E-03   3.331059626990000E-03   3.387246854150000E-03
   3.444378382400000E-03   3.502470082000000E-03   3.561538089900000E-03
   3.621598814250000E-03   3.682668938970000E-03   3.744765428390000E-03
   3.807905531930000E-03   3.872106788910000E-03   3.937387033420000E-03
   4.003764399290000E-03   4.071257325100000E-03   4.139884559320000E-03
   4.209665165510000E-03   4.280618527630000E-03   4.352764355390000E-03
   4.426122689770000E-03   4.500713908550000E-03   4.576558732000000E-03
   4.653678228610000E-03   4.732093820960000E-03   4.811827291660000E-03
   4.892900789410000E-03   4.975336835150000E-03   5.059158328320000E-03
   5.144388553190000E-03   5.231051185370000E-03   5.319170298390000E-03
   5.408770370330000E-03   5.499876290690000E-03   5.592513367240000E-03
   5.686707333110000E-03   5.782484353890000E-03   5.879871034920000E-03
   5.978894428690000E-03   6.079582042330000E-03   6.181961845270000E-03
   6.286062277010000E-03   6.391912254990000E-03   6.499541182680000E-03
   6.608978957680000E-03   6.720255980080000E-03   6.833403160890000E-03
   6.948451930610000E-03   7.065434247950000E-03   7.184382608770000E-03
   7.305330055050000E-03   7.428310184060000E-03   7.553357157750000E-03
   7.680505712200000E-03   7.809791167260000E-03   7.941249436390000E-03
   8.074917036630000E-03   8.210831098710000E-03   8.349029377430000E-03
   8.489550262080000E-03   8.632432787150000E-03   8.777716643130000E-03
   8.925442187600000E-03   9.075650456380001E-03   9.228383174950000E-03
   9.383682770040000E-03   9.541592381439999E-03   9.702155873940001E-03
   9.865417849549999E-03   1.003142365990000E-02   1.020021941870000E-02
   1.037185201470000E-02   1.054636912490000E-02   1.072381922740000E-02
   1.090425161480000E-02   1.108771640860000E-02   1.127426457230000E-02
   1.146394792610000E-02   1.165681916100000E-02   1.185293185360000E-02
   1.205234048090000E-02   1.225510043550000E-02   1.246126804090000E-02
   1.267090056710000E-02   1.288405624690000E-02   1.310079429140000E-02
   1.332117490710000E-02   1.354525931230000E-02   1.377310975400000E-02
   1.400478952550000E-02   1.424036298380000E-02   1.447989556740000E-02
   1.472345381480000E-02   1.497110538260000E-02   1.522291906440000E-02
   1.547896481020000E-02   1.573931374530000E-02   1.600403819070000E-02
   1.627321168260000E-02   1.654690899310000E-02   1.682520615100000E-02
   1.710818046300000E-02   1.739591053470000E-02   1.768847629300000E-02
   1.798595900810000E-02   1.828844131610000E-02   1.859600724160000E-02
   1.890874222170000E-02   1.922673312920000E-02   1.955006829690000E-02
   1.987883754230000E-02   2.021313219230000E-02   2.055304510860000E-02
   2.089867071370000E-02   2.125010501680000E-02   2.160744564100000E-02
   2.197079184980000E-02   2.234024457500000E-02   2.271590644480000E-02
   2.309788181200000E-02   2.348627678350000E-02   2.388119924920000E-02
   2.428275891230000E-02   2.469106731980000E-02   2.510623789330000E-02
   2.552838596060000E-02   2.595762878790000E-02   2.639408561180000E-02
   2.683787767340000E-02   2.728912825100000E-02   2.774796269480000E-02
   2.821450846200000E-02   2.868889515140000E-02   2.917125454020000E-02
   2.966172062040000E-02   3.016042963550000E-02   3.066752011900000E-02
   3.118313293280000E-02   3.170741130590000E-02   3.224050087450000E-02
   3.278254972260000E-02   3.333370842260000E-02   3.389413007790000E-02
   3.446397036470000E-02   3.504338757560000E-02   3.563254266350000E-02
   3.623159928660000E-02   3.684072385310000E-02   3.746008556840000E-02
   3.808985648130000E-02   3.873021153220000E-02   3.938132860170000E-02
   4.004338855970000E-02   4.071657531620000E-02   4.140107587170000E-02
   4.209708036970000E-02   4.280478214920000E-02   4.352437779860000E-02
   4.425606721030000E-02   4.500005363590000E-02   4.575654374330000E-02
   4.652574767330000E-02   4.730787909870000E-02   4.810315528320000E-02
   4.891179714200000E-02   4.973402930310000E-02   5.057008016960000E-02
   5.142018198310000E-02   5.228457088850000E-02   5.316348699950000E-02
   5.405717446510000E-02   5.496588153740000E-02   5.588986064100000E-02
   5.682936844270000E-02   5.778466592290000E-02   5.875601844820000E-02
   5.974369584500000E-02   6.074797247440000E-02   6.176912730860000E-02
   6.280744400830000E-02   6.386321100160000E-02   6.493672156370001E-02
   6.602827389910000E-02   6.713817122360000E-02   6.826672184920000E-02
   6.941423926949999E-02   7.058104224670000E-02   7.176745490030000E-02
   7.297380679680000E-02   7.420043304189999E-02   7.544767437300000E-02
   7.671587725390000E-02   7.800539397139999E-02   7.931658273290000E-02
   8.064980776600000E-02   8.200543941940000E-02   8.338385426630000E-02
   8.478543520850000E-02   8.621057158310000E-02   8.765965927039999E-02
   8.913310080420001E-02   9.063130548320000E-02   9.215468948500000E-02
   9.370367598160000E-02   9.527869525710000E-02   9.688018482690000E-02
   9.850858955950000E-02   1.001643618000000E-01   1.018479614960000E-01
   1.035598563250000E-01   1.053005218230000E-01   1.070704415210000E-01
   1.088701070750000E-01   1.107000184020000E-01   1.125606838230000E-01
   1.144526202030000E-01   1.163763530900000E-01   1.183324168680000E-01
   1.203213549000000E-01   1.223437196810000E-01   1.244000729930000E-01
   1.264909860590000E-01   1.286170397000000E-01   1.307788245010000E-01
   1.329769409710000E-01   1.352119997140000E-01   1.374846215910000E-01
   1.397954379030000E-01   1.421450905580000E-01   1.445342322510000E-01
   1.469635266490000E-01   1.494336485710000E-01   1.519452841780000E-01
   1.544991311630000E-01   1.570958989450000E-01   1.597363088630000E-01
   1.624210943830000E-01   1.651510012960000E-01   1.679267879260000E-01
   1.707492253430000E-01   1.736190975750000E-01   1.765372018290000E-01
   1.795043487070000E-01   1.825213624360000E-01   1.855890810940000E-01
   1.887083568450000E-01   1.918800561760000E-01   1.951050601330000E-01
   1.983842645720000E-01   2.017185804040000E-01   2.051089338500000E-01
   2.085562666960000E-01   2.120615365570000E-01   2.156257171410000E-01
   2.192497985220000E-01   2.229347874110000E-01   2.266817074420000E-01
   2.304915994480000E-01   2.343655217580000E-01   2.383045504860000E-01
   2.423097798330000E-01   2.463823223870000E-01   2.505233094370000E-01
   2.547338912840000E-01   2.590152375600000E-01   2.633685375560000E-01
   2.677950005500000E-01   2.722958561430000E-01   2.768723546030000E-01
   2.815257672080000E-01   2.862573866020000E-01   2.910685271550000E-01
   2.959605253260000E-01   3.009347400350000E-01   3.059925530390000E-01
   3.111353693200000E-01   3.163646174700000E-01   3.216817500920000E-01
   3.270882442020000E-01   3.325856016380000E-01   3.381753494790000E-01
   3.438590404700000E-01   3.496382534490000E-01   3.555145937900000E-01
   3.614896938490000E-01   3.675652134140000E-01   3.737428401670000E-01
   3.800242901570000E-01   3.864113082710000E-01   3.929056687210000E-01
   3.995091755390000E-01   4.062236630740000E-01   4.130509965050000E-01
   4.199930723570000E-01   4.270518190300000E-01   4.342291973310000E-01
   4.415272010230000E-01   4.489478573760000E-01   4.564932277320000E-01
   4.641654080750000E-01   4.719665296160000E-01   4.798987593820000E-01
   4.879643008230000E-01   4.961653944180000E-01   5.045043183010000E-01
   5.129833888940000E-01   5.216049615490000E-01   5.303714312030000E-01
   5.392852330410000E-01   5.483488431790000E-01   5.575647793430000E-01
   5.669356015750000E-01   5.764639129410000E-01   5.861523602560000E-01
   5.960036348180000E-01   6.060204731540000E-01   6.162056577860000E-01
   6.265620179950000E-01   6.370924306150000E-01   6.477998208290000E-01
   6.586871629810001E-01   6.697574814020000E-01   6.810138512510000E-01
   6.924593993720000E-01   7.040973051550000E-01   7.159308014280000E-01
   7.279631753490000E-01   7.401977693220000E-01   7.526379819220000E-01
   7.652872688460000E-01   7.781491438660000E-01   7.912271798060000E-01
   8.045250095390000E-01   8.180463269910000E-01   8.317948881730000E-01
   8.457745122150000E-01   8.599890824390000E-01   8.744425474250000E-01
   8.891389221190000E-01   9.040822889420000E-01   9.192767989250000E-01
   9.347266728630000E-01   9.504362024860000E-01   9.664097516550000E-01
   9.826517575680001E-01   9.991667319990000E-01   1.015959262550000E+00
   1.033034013910000E+00   1.050395729190000E+00   1.068049231190000E+00
   1.085999423770000E+00   1.104251293230000E+00   1.122809909630000E+00
   1.141680428270000E+00   1.160868091080000E+00   1.180378228090000E+00
   1.200216258910000E+00   1.220387694230000E+00   1.240898137360000E+00
   1.261753285770000E+00   1.282958932700000E+00   1.304520968730000E+00
   1.326445383470000E+00   1.348738267160000E+00   1.371405812420000E+00
   1.394454315940000E+00   1.417890180220000E+00   1.441719915370000E+00
   1.465950140940000E+00   1.490587587670000E+00   1.515639099480000E+00
   1.541111635270000E+00   1.567012270910000E+00   1.593348201200000E+00
   1.620126741820000E+00   1.647355331450000E+00   1.675041533760000E+00
   1.703193039520000E+00   1.731817668790000E+00   1.760923373040000E+00
   1.790518237370000E+00   1.820610482770000E+00   1.851208468390000E+00
   1.882320693860000E+00   1.913955801670000E+00   1.946122579560000E+00
   1.978829962940000E+00   2.012087037420000E+00   2.045903041270000E+00
   2.080287368060000E+00   2.115249569200000E+00   2.150799356650000E+00
   2.186946605570000E+00   2.223701357100000E+00   2.261073821130000E+00
   2.299074379130000E+00   2.337713587070000E+00   2.377002178300000E+00
   2.416951066580000E+00   2.457571349070000E+00   2.498874309450000E+00
   2.540871421020000E+00   2.583574349930000E+00   2.626994958370000E+00
   2.671145307900000E+00   2.716037662800000E+00   2.761684493440000E+00
   2.808098479800000E+00   2.855292514940000E+00   2.903279708640000E+00
   2.952073390960000E+00   3.001687116030000E+00   3.052134665760000E+00
   3.103430053680000E+00   3.155587528830000E+00   3.208621579740000E+00
   3.262546938430000E+00   3.317378584520000E+00   3.373131749360000E+00
   3.429821920320000E+00   3.487464845010000E+00   3.546076535750000E+00
   3.605673273920000E+00   3.666271614570000E+00   3.727888390950000E+00
   3.790540719230000E+00   3.854246003230000E+00   3.919021939290000E+00
   3.984886521130000E+00   4.051858044900000E+00   4.119955114220000E+00
   4.189196645380000E+00   4.259601872600000E+00   4.331190353320000E+00
   4.403981973700000E+00   4.477996954110000E+00   4.553255854720000E+00
   4.629779581290000E+00   4.707589390890000E+00   4.786706897850000E+00
   4.867154079780000E+00   4.948953283620000E+00   5.032127231910000E+00
   5.116699029060000E+00   5.202692167760000E+00   5.290130535570000E+00
   5.379038421480000E+00   5.469440522690000E+00   5.561361951480000E+00
   5.654828242170000E+00   5.749865358220000E+00   5.846499699450000E+00
   5.944758109340000E+00   6.044667882530000E+00   6.146256772380000E+00
   6.249552998670000E+00   6.354585255470000E+00   6.461382719080000E+00
   6.569975056150000E+00   6.680392431910000E+00   6.792665518570000E+00
   6.906825503820000E+00   7.022904099490000E+00   7.140933550400000E+00
   7.260946643250000E+00   7.382976715790000E+00   7.507057666050000E+00
   7.633223961760000E+00   7.761510649910000E+00   7.891953366530000E+00
   8.024588346530001E+00   8.159452433840000E+00   8.296583091550000E+00
   8.436018412399999E+00   8.577797129329999E+00   8.721958626210000E+00
   8.868542948829999E+00   9.017590816009999E+00   9.169143630890000E+00
   9.323243492450001E+00   9.479933207200000E+00   9.639256301050001E+00
   9.801257031470000E+00   9.965980399679999E+00   1.013347216320000E+01
   1.030377884870000E+01   1.047694776460000E+01   1.065302701450000E+01
   1.083206551050000E+01   1.101411298650000E+01   1.119922001260000E+01
   1.138743800860000E+01   1.157881925840000E+01   1.177341692460000E+01
   1.197128506360000E+01   1.217247863980000E+01   1.237705354180000E+01
   1.258506659720000E+01   1.279657558870000E+01   1.301163927020000E+01
   1.323031738300000E+01   1.345267067240000E+01   1.367876090460000E+01
   1.390865088400000E+01   1.414240447030000E+01   1.438008659660000E+01
   1.462176328730000E+01   1.486750167630000E+01   1.511737002580000E+01
   1.537143774540000E+01   1.562977541100000E+01   1.589245478470000E+01
   1.615954883480000E+01   1.643113175580000E+01   1.670727898900000E+01
   1.698806724390000E+01   1.727357451890000E+01   1.756388012360000E+01
   1.785906470020000E+01   1.815921024620000E+01   1.846440013750000E+01
   1.877471915100000E+01   1.909025348830000E+01   1.941109079990000E+01
   1.973732020940000E+01   2.006903233810000E+01   2.040631933040000E+01
   2.074927487940000E+01   2.109799425260000E+01   2.145257431890000E+01
   2.181311357490000E+01   2.217971217270000E+01   2.255247194770000E+01
   2.293149644660000E+01   2.331689095650000E+01   2.370876253380000E+01
   2.410722003430000E+01   2.451237414330000E+01   2.492433740600000E+01
   2.534322425940000E+01   2.576915106370000E+01   2.620223613460000E+01
   2.664259977630000E+01   2.709036431480000E+01   2.754565413210000E+01
   2.800859570050000E+01   2.847931761780000E+01   2.895795064320000E+01
   2.944462773340000E+01   2.993948407950000E+01   3.044265714490000E+01
   3.095428670310000E+01   3.147451487660000E+01   3.200348617670000E+01
   3.254134754320000E+01   3.308824838560000E+01   3.364434062420000E+01
   3.420977873270000E+01   3.478471978090000E+01   3.536932347820000E+01
   3.596375221850000E+01   3.656817112450000E+01   3.718274809440000E+01
   3.780765384790000E+01   3.844306197390000E+01   3.908914897890000E+01
   3.974609433550000E+01   4.041408053280000E+01   4.109329312680000E+01
   4.178392079210000E+01   4.248615537410000E+01   4.320019194250000E+01
   4.392622884540000E+01   4.466446776430000E+01   4.541511377040000E+01
   4.617837538130000E+01   4.695446461900000E+01   4.774359706880000E+01
   4.854599193930000E+01   4.936187212310000E+01   5.019146425890000E+01
   5.103499879410000E+01   5.189271004940000E+01   5.276483628350000E+01
   5.365161975920000E+01   5.455330681100000E+01   5.547014791320000E+01
   5.640239775000000E+01   5.735031528550000E+01   5.831416383630000E+01
   5.929421114420000E+01   6.029072945110000E+01   6.130399557380000E+01
   6.233429098170000E+01   6.338190187470000E+01   6.444711926250000E+01
   6.553023904560000E+01   6.663156209760000E+01   6.775139434870000E+01
   6.889004687060000E+01   7.004783596300000E+01   7.122508324130000E+01
   7.242211572639999E+01   7.363926593490000E+01   7.487687197200000E+01
   7.613527762500000E+01   7.741483245910000E+01   7.871589191459999E+01
   8.003881740510000E+01   8.138397641840000E+01   8.275174261860001E+01
   8.414249594940000E+01   8.555662274020000E+01   8.699451581309999E+01
   8.845657459189999E+01   8.994320521370000E+01   9.145482064090000E+01
   9.299184077629999E+01   9.455469257999999E+01   9.614381018740001E+01
   9.775963503030000E+01   9.940261595939999E+01   1.010732093690000E+02
   1.027718793230000E+02   1.044990976860000E+02   1.062553442510000E+02
   1.080411068760000E+02   1.098568816180000E+02   1.117031728700000E+02
   1.135804935020000E+02   1.154893650060000E+02   1.174303176350000E+02
   1.194038905550000E+02   1.214106319930000E+02   1.234510993910000E+02
   1.255258595580000E+02   1.276354888300000E+02   1.297805732290000E+02
   1.319617086250000E+02   1.341795009030000E+02   1.364345661300000E+02
   1.387275307290000E+02   1.410590316480000E+02   1.434297165430000E+02
   1.458402439500000E+02   1.482912834780000E+02   1.507835159860000E+02
    </PP_R>
    <PP_RAB>
   2.026404367900000E-07   2.060460789200000E-07   2.095089573970000E-07
   2.130300341540000E-07   2.166102872900000E-07   2.202507113440000E-07
   2.239523175660000E-07   2.277161342060000E-07   2.315432067920000E-07
   2.354345984240000E-07   2.393913900690000E-07   2.434146808630000E-07
   2.475055884100000E-07   2.516652491010000E-07   2.558948184240000E-07
   2.601954712870000E-07   2.645684023420000E-07   2.690148263220000E-07
   2.735359783720000E-07   2.781331143970000E-07   2.828075114090000E-07
   2.875604678810000E-07   2.923933041110000E-07   2.973073625820000E-07
   3.023040083440000E-07   3.073846293850000E-07   3.125506370220000E-07
   3.178034662910000E-07   3.231445763430000E-07   3.285754508560000E-07
   3.340975984390000E-07   3.397125530600000E-07   3.454218744630000E-07
   3.512271486080000E-07   3.571299881080000E-07   3.631320326790000E-07
   3.692349495940000E-07   3.754404341470000E-07   3.817502101240000E-07
   3.881660302800000E-07   3.946896768300000E-07   4.013229619390000E-07
   4.080677282290000E-07   4.149258492890000E-07   4.218992301980000E-07
   4.289898080510000E-07   4.361995524970000E-07   4.435304662910000E-07
   4.509845858430000E-07   4.585639817920000E-07   4.662707595740000E-07
   4.741070600080000E-07   4.820750598970000E-07   4.901769726250000E-07
   4.984150487750000E-07   5.067915767540000E-07   5.153088834300000E-07
   5.239693347760000E-07   5.327753365280000E-07   5.417293348550000E-07
   5.508338170370000E-07   5.600913121540000E-07   5.695043917930000E-07
   5.790756707570001E-07   5.888078077990000E-07   5.987035063510000E-07
   6.087655152820000E-07   6.189966296590000E-07   6.293996915250000E-07
   6.399775906860000E-07   6.507332655150000E-07   6.616697037690000E-07
   6.727899434170000E-07   6.840970734860000E-07   6.955942349200000E-07
   7.072846214470000E-07   7.191714804720000E-07   7.312581139770000E-07
   7.435478794380000E-07   7.560441907580000E-07   7.687505192140000E-07
   7.816703944250000E-07   7.948074053270000E-07   8.081652011740000E-07
   8.217474925520000E-07   8.355580524060000E-07   8.496007170910000E-07
   8.638793874390000E-07   8.783980298380000E-07   8.931606773380000E-07
   9.081714307700000E-07   9.234344598830000E-07   9.389540045060000E-07
   9.547343757230000E-07   9.707799570720000E-07   9.870952057630000E-07
   1.003684653910000E-06   1.020552909810000E-06   1.037704659190000E-06
   1.055144666540000E-06   1.072877776410000E-06   1.090908914780000E-06
   1.109243090420000E-06   1.127885396280000E-06   1.146841010890000E-06
   1.166115199820000E-06   1.185713317130000E-06   1.205640806890000E-06
   1.225903204610000E-06   1.246506138890000E-06   1.267455332890000E-06
   1.288756605960000E-06   1.310415875270000E-06   1.332439157420000E-06
   1.354832570110000E-06   1.377602333910000E-06   1.400754773870000E-06
   1.424296321390000E-06   1.448233515940000E-06   1.472573006880000E-06
   1.497321555350000E-06   1.522486036110000E-06   1.548073439440000E-06
   1.574090873120000E-06   1.600545564390000E-06   1.627444861950000E-06
   1.654796237980000E-06   1.682607290280000E-06   1.710885744310000E-06
   1.739639455380000E-06   1.768876410820000E-06   1.798604732200000E-06
   1.828832677560000E-06   1.859568643760000E-06   1.890821168760000E-06
   1.922598934030000E-06   1.954910766910000E-06   1.987765643140000E-06
   2.021172689270000E-06   2.055141185250000E-06   2.089680567000000E-06
   2.124800429010000E-06   2.160510527020000E-06   2.196820780740000E-06
   2.233741276590000E-06   2.271282270480000E-06   2.309454190720000E-06
   2.348267640860000E-06   2.387733402660000E-06   2.427862439100000E-06
   2.468665897390000E-06   2.510155112070000E-06   2.552341608210000E-06
   2.595237104530000E-06   2.638853516740000E-06   2.683202960790000E-06
   2.728297756240000E-06   2.774150429720000E-06   2.820773718380000E-06
   2.868180573440000E-06   2.916384163760000E-06   2.965397879550000E-06
   3.015235336040000E-06   3.065910377290000E-06   3.117437080030000E-06
   3.169829757560000E-06   3.223102963730000E-06   3.277271497010000E-06
   3.332350404550000E-06   3.388354986410000E-06   3.445300799780000E-06
   3.503203663300000E-06   3.562079661480000E-06   3.621945149130000E-06
   3.682816755950000E-06   3.744711391100000E-06   3.807646247940000E-06
   3.871638808780000E-06   3.936706849730000E-06   4.002868445680000E-06
   4.070141975270000E-06   4.138546126030000E-06   4.208099899540000E-06
   4.278822616750000E-06   4.350733923310000E-06   4.423853795050000E-06
   4.498202543510000E-06   4.573800821600000E-06   4.650669629330000E-06