<UPF version="2.0.1">
  <PP_INFO>
    Generated by new atomic code, or converted to UPF format
    Author: 
    Generation date: 
    Pseudopotential type: US
    Element: Rh
    Functional:  SLA  PZ   NOGX NOGC
    Suggested minimum cutoff for wavefunctions:   0. Ry
    Suggested minimum cutoff for charge density:   0. Ry
    The Pseudo was generated with a Non-Relativistic Calculation
    L component and cutoff radius for Local Potential:  0   0.0000
    Valence configuration: 
    nl pn  l   occ       Rcut    Rcut US       E pseu
    4P  2  1  6.00      0.000      0.000     0.000000
    4D  3  2  7.50      0.000      0.000     0.000000
    5S  1  0  1.00      0.000      0.000     0.000000
    5P  2  1  0.00      0.000      0.000     0.000000
    Generation configuration: not available.
  </PP_INFO>
    <!-- END OF HUMAN READABLE SECTION -->
  <PP_HEADER generated="Generated by new atomic code, or converted to UPF format" author="" date="" comment="" element="Rh" pseudo_type="US" relativistic="no" is_ultrasoft="true" is_paw="false" is_coulomb="false" has_so="false" has_wfc="false" has_gipaw="false" paw_as_gipaw="false" core_correction="true" functional=" SLA  PZ   NOGX NOGC" z_valence="15.000000000000000" total_psenergy="-170.38717777299999" wfc_cutoff="0.0000000000000000" rho_cutoff="0.0000000000000000" l_max="2" l_max_rho="0" l_local="0" mesh_size="969" number_of_wfc="4" number_of_proj="7"/>
  <PP_MESH>
    <PP_R>
   0.000000000000000E+00   3.405642130310000E-07   6.868520607430000E-07
   1.038959736430000E-06   1.396985050050000E-06   1.761027455380000E-06
   2.131188077640000E-06   2.507569741620000E-06   2.890277000200000E-06
   3.279416163400000E-06   3.675095327950000E-06   4.077424407260000E-06
   4.486515162010000E-06   4.902481231130000E-06   5.325438163450000E-06
   5.755503449700000E-06   6.192796555250000E-06   6.637438953200000E-06
   7.089554158200000E-06   7.549267760700000E-06   8.016707461900000E-06
   8.492003109140000E-06   8.975286732060000E-06   9.466692579230000E-06
   9.966357155409999E-06   1.047441925950000E-05   1.099102002330000E-05
   1.151630295010000E-05   1.205041395530000E-05   1.259350140660000E-05
   1.314571616500000E-05   1.370721162700000E-05   1.427814376730000E-05
   1.485867118180000E-05   1.544895513180000E-05   1.604915958890000E-05
   1.665945128040000E-05   1.727999973570000E-05   1.791097733340000E-05
   1.855255934900000E-05   1.920492400400000E-05   1.986825251490000E-05
   2.054272914390000E-05   2.122854124990000E-05   2.192587934080000E-05
   2.263493712610000E-05   2.335591157070000E-05   2.408900295010000E-05
   2.483441490540000E-05   2.559235450020000E-05   2.636303227840000E-05
   2.714666232180000E-05   2.794346231070000E-05   2.875365358350000E-05
   2.957746119850000E-05   3.041511399640000E-05   3.126684466400000E-05
   3.213288979860000E-05   3.301348997380000E-05   3.390888980660000E-05
   3.481933802470000E-05   3.574508753640000E-05   3.668639550030000E-05
   3.764352339680000E-05   3.861673710090000E-05   3.960630695610000E-05
   4.061250784920000E-05   4.163561928700000E-05   4.267592547360000E-05
   4.373371538960000E-05   4.480928287250000E-05   4.590292669790000E-05
   4.701495066270000E-05   4.814566366970000E-05   4.929537981300000E-05
   5.046441846570000E-05   5.165310436820000E-05   5.286176771870000E-05
   5.409074426480000E-05   5.534037539680000E-05   5.661100824240000E-05
   5.790299576350000E-05   5.921669685370000E-05   6.055247643840000E-05
   6.191070557620000E-05   6.329176156160000E-05   6.469602803010000E-05
   6.612389506490000E-05   6.757575930480000E-05   6.905202405490000E-05
   7.055309939800000E-05   7.207940230929999E-05   7.363135677160000E-05
   7.520939389329999E-05   7.681395202820001E-05   7.844547689730000E-05
   8.010442171240000E-05   8.179124730210000E-05   8.350642224000000E-05
   8.525042297460001E-05   8.702373396169999E-05   8.882684779910000E-05
   9.066026536350000E-05   9.252449594910000E-05   9.442005740990000E-05
   9.634747630279999E-05   9.830728803450000E-05   1.003000370100000E-04
   1.023262767820000E-04   1.043865702100000E-04   1.064814896100000E-04
   1.086116169180000E-04   1.107775438480000E-04   1.129798720630000E-04
   1.152192133320000E-04   1.174961897120000E-04   1.198114337080000E-04
   1.221655884600000E-04   1.245593079150000E-04   1.269932570090000E-04
   1.294681118560000E-04   1.319845599320000E-04   1.345433002650000E-04
   1.371450436330000E-04   1.397905127600000E-04   1.424804425160000E-04
   1.452155801190000E-04   1.479966853490000E-04   1.508245307520000E-04
   1.536999018590000E-04   1.566235974030000E-04   1.595964295410000E-04
   1.626192240770000E-04   1.656928206970000E-04   1.688180731970000E-04
   1.719958497240000E-04   1.752270330120000E-04   1.785125206350000E-04
   1.818532252480000E-04   1.852500748460000E-04   1.887040130210000E-04
   1.922159992220000E-04   1.957870090230000E-04   1.994180343950000E-04
   2.031100839800000E-04   2.068641833690000E-04   2.106813753930000E-04
   2.145627204070000E-04   2.185092965870000E-04   2.225222002310000E-04
   2.266025460600000E-04   2.307514675280000E-04   2.349701171420000E-04
   2.392596667740000E-04   2.436213079950000E-04   2.480562524000000E-04
   2.525657319450000E-04   2.571509992930000E-04   2.618133281590000E-04
   2.665540136650000E-04   2.713743726970000E-04   2.762757442760000E-04
   2.812594899250000E-04   2.863269940500000E-04   2.914796643240000E-04
   2.967189320770000E-04   3.020462526940000E-04   3.074631060220000E-04
   3.129709967760000E-04   3.185714549620000E-04   3.242660362990000E-04
   3.300563226510000E-04   3.359439224690000E-04   3.419304712340000E-04
   3.480176319160000E-04   3.542070954310000E-04   3.605005811150000E-04
   3.668998371990000E-04   3.734066412940000E-04   3.800228008890000E-04
   3.867501538480000E-04   3.935905689240000E-04   4.005459462750000E-04
   4.076182179960000E-04   4.148093486520000E-04   4.221213358260000E-04
   4.295562106720000E-04   4.371160384810000E-04   4.448029192540000E-04
   4.526189882850000E-04   4.605664167540000E-04   4.686474123320000E-04
   4.768642197910000E-04   4.852191216320000E-04   4.937144387120000E-04
   5.023525308990000E-04   5.111357977170000E-04   5.200666790180000E-04
   5.291476556619999E-04   5.383812501990000E-04   5.477700275770000E-04
   5.573165958490000E-04   5.670236069020000E-04   5.768937571890000E-04
   5.869297884830000E-04   5.971344886350000E-04   6.075106923490000E-04
   6.180612819710000E-04   6.287891882880000E-04   6.396973913420000E-04
   6.507889212610000E-04   6.620668590970000E-04   6.735343376820000E-04
   6.851945425000000E-04   6.970507125730000E-04   7.091061413580000E-04
   7.213641776620000E-04   7.338282265730000E-04   7.465017504090000E-04
   7.593882696730000E-04   7.724913640380000E-04   7.858146733350000E-04
   7.993618985710000E-04   8.131368029490000E-04   8.271432129220000E-04
   8.413850192480001E-04   8.558661780770000E-04   8.705907120450000E-04
   8.855627113960001E-04   9.007863351140000E-04   9.162658120830000E-04
   9.320054422549999E-04   9.480095978530001E-04   9.642827245760000E-04
   9.808293428449999E-04   9.976540490460001E-04   1.014761516820000E-03
   1.032156498350000E-03   1.049843825680000E-03   1.067828412080000E-03
   1.086115253380000E-03   1.104709429380000E-03   1.123616105250000E-03
   1.142840532950000E-03   1.162388052740000E-03   1.182264094610000E-03
   1.202474179800000E-03   1.223023922360000E-03   1.243919030680000E-03
   1.265165309100000E-03   1.286768659490000E-03   1.308735082920000E-03
   1.331070681330000E-03   1.353781659180000E-03   1.376874325220000E-03
   1.400355094250000E-03   1.424230488830000E-03   1.448507141190000E-03
   1.473191794980000E-03   1.498291307220000E-03   1.523812650160000E-03
   1.549762913220000E-03   1.576149304970000E-03   1.602979155140000E-03
   1.630259916640000E-03   1.657999167630000E-03   1.686204613630000E-03
   1.714884089680000E-03   1.744045562480000E-03   1.773697132620000E-03
   1.803847036850000E-03   1.834503650330000E-03   1.865675488990000E-03
   1.897371211860000E-03   1.929599623530000E-03   1.962369676530000E-03
   1.995690473860000E-03   2.029571271530000E-03   2.064021481070000E-03
   2.099050672220000E-03   2.134668575530000E-03   2.170885085090000E-03
   2.207710261270000E-03   2.245154333530000E-03   2.283227703240000E-03
   2.321940946580000E-03   2.361304817480000E-03   2.401330250600000E-03
   2.442028364370000E-03   2.483410464090000E-03   2.525488045050000E-03
   2.568272795730000E-03   2.611776601070000E-03   2.656011545740000E-03
   2.700989917500000E-03   2.746724210630000E-03   2.793227129410000E-03
   2.840511591610000E-03   2.888590732090000E-03   2.937477906500000E-03
   2.987186694910000E-03   3.037730905650000E-03   3.089124579080000E-03
   3.141381991580000E-03   3.194517659410000E-03   3.248546342830000E-03
   3.303483050160000E-03   3.359343041940000E-03   3.416141835190000E-03
   3.473895207730000E-03   3.532619202540000E-03   3.592330132200000E-03
   3.653044583470000E-03   3.714779421870000E-03   3.777551796350000E-03
   3.841379144110000E-03   3.906279195360000E-03   3.972269978310000E-03
   4.039369824160000E-03   4.107597372190000E-03   4.176971574930000E-03
   4.247511703450000E-03   4.319237352670000E-03   4.392168446850000E-03
   4.466325245090000E-03   4.541728346990000E-03   4.618398698320000E-03
   4.696357596920000E-03   4.775626698510000E-03   4.856228022820000E-03
   4.938183959620000E-03   5.021517274970000E-03   5.106251117540000E-03
   5.192409025070000E-03   5.280014930860000E-03   5.369093170450000E-03
   5.459668488360000E-03   5.551766044980000E-03   5.645411423580000E-03
   5.740630637340000E-03   5.837450136670000E-03   5.935896816490000E-03
   6.035998023740000E-03   6.137781564950000E-03   6.241275713990000E-03
   6.346509219880000E-03   6.453511314840000E-03   6.562311722360000E-03
   6.672940665480000E-03   6.785428875170000E-03   6.899807598870000E-03
   7.016108609190000E-03   7.134364212710000E-03   7.254607258980000E-03
   7.376871149610000E-03   7.501189847580000E-03   7.627597886660000E-03
   7.756130381010000E-03   7.886823034929999E-03   8.019712152760001E-03
   8.154834649020001E-03   8.292228058590000E-03   8.431930547190001E-03
   8.573980921979999E-03   8.718418642289999E-03   8.865283830650000E-03
   9.014617283890001E-03   9.166460484480001E-03   9.320855612070000E-03
   9.477845555180000E-03   9.637473923140001E-03   9.799785058200000E-03
   9.964824047810000E-03   1.013263673720000E-02   1.030326974210000E-02
   1.047677046170000E-02   1.065318709160000E-02   1.083256863780000E-02
   1.101496492950000E-02   1.120042663350000E-02   1.138900526820000E-02
   1.158075321770000E-02   1.177572374660000E-02   1.197397101460000E-02
   1.217555009170000E-02   1.238051697340000E-02   1.258892859630000E-02
   1.280084285370000E-02   1.301631861210000E-02   1.323541572730000E-02
   1.345819506100000E-02   1.368471849790000E-02   1.391504896240000E-02
   1.414925043680000E-02   1.438738797860000E-02   1.462952773860000E-02
   1.487573697930000E-02   1.512608409400000E-02   1.538063862490000E-02
   1.563947128340000E-02   1.590265396910000E-02   1.617025978990000E-02
   1.644236308260000E-02   1.671903943310000E-02   1.700036569780000E-02
   1.728642002460000E-02   1.757728187490000E-02   1.787303204560000E-02
   1.817375269140000E-02   1.847952734770000E-02   1.879044095390000E-02
   1.910657987690000E-02   1.942803193510000E-02   1.975488642270000E-02
   2.008723413490000E-02   2.042516739250000E-02   2.076878006810000E-02
   2.111816761190000E-02   2.147342707810000E-02   2.183465715240000E-02
   2.220195817850000E-02   2.257543218710000E-02   2.295518292330000E-02
   2.334131587580000E-02   2.373393830630000E-02   2.413315927900000E-02
   2.453908969130000E-02   2.495184230430000E-02   2.537153177400000E-02
   2.579827468360000E-02   2.623218957560000E-02   2.667339698450000E-02
   2.712201947100000E-02   2.757818165520000E-02   2.804201025170000E-02
   2.851363410490000E-02   2.899318422440000E-02   2.948079382170000E-02
   2.997659834690000E-02   3.048073552680000E-02   3.099334540270000E-02
   3.151457036950000E-02   3.204455521530000E-02   3.258344716160000E-02
   3.313139590390000E-02   3.368855365380000E-02   3.425507518100000E-02
   3.483111785610000E-02   3.541684169470000E-02   3.601240940170000E-02
   3.661798641630000E-02   3.723374095830000E-02   3.785984407460000E-02
   3.849646968670000E-02   3.914379463920000E-02   3.980199874870000E-02
   4.047126485390000E-02   4.115177886640000E-02   4.184372982220000E-02
   4.254730993440000E-02   4.326271464640000E-02   4.399014268640000E-02
   4.472979612230000E-02   4.548188041830000E-02   4.624660449140000E-02
   4.702418076990000E-02   4.781482525230000E-02   4.861875756710000E-02
   4.943620103390000E-02   5.026738272580000E-02   5.111253353170000E-02
   5.197188822130000E-02   5.284568550980000E-02   5.373416812420000E-02
   5.463758287090000E-02   5.555618070440000E-02   5.649021679650000E-02
   5.743995060780000E-02   5.840564595930000E-02   5.938757110590000E-02
   6.038599881100000E-02   6.140120642190000E-02   6.243347594740000E-02
   6.348309413550000E-02   6.455035255369999E-02   6.563554766950000E-02
   6.673898093290000E-02   6.786095886030000E-02   6.900179311950000E-02
   7.016180061610000E-02   7.134130358200000E-02   7.254062966440000E-02
   7.376011201710000E-02   7.500008939320001E-02   7.626090623880000E-02
   7.754291278880000E-02   7.884646516450000E-02   8.017192547200000E-02
   8.151966190340000E-02   8.289004883860000E-02   8.428346694930000E-02
   8.570030330510001E-02   8.714095148089999E-02   8.860581166589999E-02
   9.009529077510001E-02   9.160980256230000E-02   9.314976773500000E-02
   9.471561407119999E-02   9.630777653820000E-02   9.792669741370000E-02
   9.957282640829999E-02   1.012466207910000E-01   1.029485455140000E-01
   1.046790733470000E-01   1.064386850030000E-01   1.082278692730000E-01
   1.100471231650000E-01   1.118969520390000E-01   1.137778697490000E-01
   1.156903987830000E-01   1.176350704110000E-01   1.196124248340000E-01
   1.216230113280000E-01   1.236673884030000E-01   1.257461239550000E-01
   1.278597954230000E-01   1.300089899520000E-01   1.321943045550000E-01
   1.344163462770000E-01   1.366757323660000E-01   1.389730904440000E-01
   1.413090586810000E-01   1.436842859720000E-01   1.460994321170000E-01
   1.485551680070000E-01   1.510521758050000E-01   1.535911491420000E-01
   1.561727933030000E-01   1.587978254290000E-01   1.614669747120000E-01
   1.641809825990000E-01   1.669406030000000E-01   1.697466024930000E-01
   1.725997605410000E-01   1.755008697050000E-01   1.784507358690000E-01
   1.814501784580000E-01   1.845000306700000E-01   1.876011397060000E-01
   1.907543670050000E-01   1.939605884830000E-01   1.972206947800000E-01
   2.005355914990000E-01   2.039061994680000E-01   2.073334549890000E-01
   2.108183100980000E-01   2.143617328330000E-01   2.179647075010000E-01
   2.216282349520000E-01   2.253533328560000E-01   2.291410359860000E-01
   2.329923965060000E-01   2.369084842630000E-01   2.408903870850000E-01
   2.449392110820000E-01   2.490560809520000E-01   2.532421402970000E-01
   2.574985519390000E-01   2.618264982410000E-01   2.662271814390000E-01
   2.707018239720000E-01   2.752516688260000E-01   2.798779798760000E-01
   2.845820422380000E-01   2.893651626260000E-01   2.942286697150000E-01
   2.991739145120000E-01   3.042022707260000E-01   3.093151351570000E-01
   3.145139280760000E-01   3.198000936260000E-01   3.251751002220000E-01
   3.306404409530000E-01   3.361976340070000E-01   3.418482230840000E-01
   3.475937778270000E-01   3.534358942620000E-01   3.593761952350000E-01
   3.654163308700000E-01   3.715579790190000E-01   3.778028457360000E-01
   3.841526657470000E-01   3.906092029300000E-01   3.971742508110000E-01
   4.038496330550000E-01   4.106372039790000E-01   4.175388490620000E-01
   4.245564854730000E-01   4.316920625990000E-01   4.389475625930000E-01
   4.463250009160000E-01   4.538264269050000E-01   4.614539243380000E-01
   4.692096120130000E-01   4.770956443370000E-01   4.851142119260000E-01
   4.932675422110000E-01   5.015579000580001E-01   5.099875883980000E-01
   5.185589488660000E-01   5.272743624500000E-01   5.361362501540000E-01
   5.451470736700000E-01   5.543093360630000E-01   5.636255824660000E-01
   5.730984007830000E-01   5.827304224140000E-01   5.925243229840000E-01
   6.024828230820000E-01   6.126086890230000E-01   6.229047336120000E-01
   6.333738169290000E-01   6.440188471179999E-01   6.548427812020000E-01
   6.658486258980000E-01   6.770394384570000E-01   6.884183275080000E-01
   6.999884539280000E-01   7.117530317160000E-01   7.237153288850000E-01
   7.358786683720000E-01   7.482464289610000E-01   7.608220462200000E-01
   7.736090134590000E-01   7.866108826929999E-01   7.998312656370000E-01
   8.132738347050000E-01   8.269423240290000E-01   8.408405305020000E-01
   8.549723148240000E-01   8.693416025820000E-01   8.839523853380000E-01
   8.988087217360000E-01   9.139147386310000E-01   9.292746322380000E-01
   9.448926692910000E-01   9.607731882350000E-01   9.769206004270000E-01
   9.933393913630000E-01   1.010034121920000E+00   1.027009429640000E+00
   1.044270029990000E+00   1.061820717690000E+00   1.079666368050000E+00
   1.097811938300000E+00   1.116262469000000E+00   1.135023085420000E+00
   1.154098998950000E+00   1.173495508590000E+00   1.193218002380000E+00
   1.213271958920000E+00   1.233662948870000E+00   1.254396636540000E+00
   1.275478781410000E+00   1.296915239780000E+00   1.318711966340000E+00
   1.340875015900000E+00   1.363410544990000E+00   1.386324813620000E+00
   1.409624187030000E+00   1.433315137400000E+00   1.457404245710000E+00
   1.481898203530000E+00   1.506803814900000E+00   1.532127998210000E+00
   1.557877788100000E+00   1.584060337480000E+00   1.610682919430000E+00
   1.637752929280000E+00   1.665277886670000E+00   1.693265437580000E+00
   1.721723356520000E+00   1.750659548650000E+00   1.780082051980000E+00
   1.809999039620000E+00   1.840418822050000E+00   1.871349849380000E+00
   1.902800713780000E+00   1.934780151800000E+00   1.967297046820000E+00
   2.000360431520000E+00   2.033979490390000E+00   2.068163562270000E+00
   2.102922142950000E+00   2.138264887830000E+00   2.174201614550000E+00
   2.210742305780000E+00   2.247897111930000E+00   2.285676354030000E+00
   2.324090526560000E+00   2.363150300360000E+00   2.402866525620000E+00
   2.443250234890000E+00   2.484312646120000E+00   2.526065165800000E+00
   2.568519392120000E+00   2.611687118190000E+00   2.655580335330000E+00
   2.700211236370000E+00   2.745592219090000E+00   2.791735889590000E+00
   2.838655065870000E+00   2.886362781320000E+00   2.934872288400000E+00
   2.984197062290000E+00   3.034350804620000E+00   3.085347447310000E+00
   3.137201156430000E+00   3.189926336120000E+00   3.243537632600000E+00
   3.298049938240000E+00   3.353478395690000E+00   3.409838402120000E+00
   3.467145613430000E+00   3.525415948670000E+00   3.584665594420000E+00
   3.644911009290000E+00   3.706168928500000E+00   3.768456368550000E+00
   3.831790631890000E+00   3.896189311780000E+00   3.961670297170000E+00
   4.028251777630000E+00   4.095952248440000E+00   4.164790515740000E+00
   4.234785701700000E+00   4.305957249890000E+00   4.378324930620000E+00
   4.451908846510000E+00   4.526729438000000E+00   4.602807489060000E+00
   4.680164132990000E+00   4.758820858240000E+00   4.838799514400000E+00
   4.920122318270000E+00   5.002811860060000E+00   5.086891109600000E+00
   5.172383422790000E+00   5.259312548050000E+00   5.347702632900000E+00
   5.437578230720000E+00   5.528964307530000E+00   5.621886248940000E+00
   5.716369867200000E+00   5.812441408360000E+00   5.910127559580000E+00
   6.009455456540000E+00   6.110452690950000E+00   6.213147318240000E+00
   6.317567865380000E+00   6.423743338720000E+00   6.531703232160000E+00
   6.641477535220000E+00   6.753096741500000E+00   6.866591857030000E+00
   6.981994408970000E+00   7.099336454330000E+00   7.218650588870000E+00
   7.339969956170000E+00   7.463328256840000E+00   7.588759757870000E+00
   7.716299302150000E+00   7.845982318150000E+00   7.977844829750000E+00
   8.111923466300000E+00   8.248255472700000E+00   8.386878719849999E+00
   8.527831715090000E+00   8.671153612940000E+00   8.816884225950000E+00
   8.965064035790000E+00   9.115734204480001E+00   9.268936585800001E+00
   9.424713736950000E+00   9.583108930370001E+00   9.744166165750000E+00
   9.907930182230000E+00   1.007444647090000E+01   1.024376128730000E+01
   1.041592166450000E+01   1.059097542580000E+01   1.076897119850000E+01
   1.094995842690000E+01   1.113398738650000E+01   1.132110919760000E+01
   1.151137583970000E+01   1.170484016580000E+01   1.190155591730000E+01
   1.210157773880000E+01   1.230496119300000E+01   1.251176277680000E+01
   1.272203993630000E+01   1.293585108320000E+01   1.315325561090000E+01
   1.337431391090000E+01   1.359908738970000E+01   1.382763848590000E+01
   1.406003068730000E+01   1.429632854890000E+01   1.453659771030000E+01
   1.478090491470000E+01   1.502931802670000E+01   1.528190605150000E+01
   1.553873915410000E+01   1.579988867870000E+01   1.606542716840000E+01
   1.633542838580000E+01   1.660996733280000E+01   1.688912027210000E+01
   1.717296474780000E+01   1.746157960770000E+01   1.775504502420000E+01
   1.805344251750000E+01   1.835685497760000E+01   1.866536668770000E+01
   1.897906334760000E+01   1.929803209730000E+01   1.962236154110000E+01
   1.995214177260000E+01   2.028746439970000E+01   2.062842256970000E+01
   2.097511099530000E+01   2.132762598120000E+01   2.168606545030000E+01
   2.205052897160000E+01   2.242111778730000E+01   2.279793484100000E+01
   2.318108480660000E+01   2.357067411720000E+01   2.396681099440000E+01
   2.436960547880000E+01   2.477916946040000E+01   2.519561670960000E+01
   2.561906290890000E+01   2.604962568490000E+01   2.648742464120000E+01
   2.693258139130000E+01   2.738521959290000E+01   2.784546498170000E+01
   2.831344540650000E+01   2.878929086490000E+01   2.927313353930000E+01
   2.976510783360000E+01   3.026535041040000E+01   3.077400022920000E+01
   3.129119858490000E+01   3.181708914710000E+01   3.235181799980000E+01
   3.289553368230000E+01   3.344838723010000E+01   3.401053221740000E+01
   3.458212479900000E+01   3.516332375440000E+01   3.575429053150000E+01
   3.635518929140000E+01   3.696618695450000E+01   3.758745324610000E+01
   3.821916074430000E+01   3.886148492740000E+01   3.951460422300000E+01
   4.017870005720000E+01   4.085395690540000E+01   4.154056234330000E+01
   4.223870709910000E+01   4.294858510620000E+01   4.367039355770000E+01
   4.440433296050000E+01   4.515060719140000E+01   4.590942355350000E+01
   4.668099283420000E+01   4.746552936310000E+01   4.826325107210000E+01
   4.907437955570000E+01   4.989914013250000E+01   5.073776190820000E+01
   5.159047783840000E+01   5.245752479430000E+01   5.333914362780000E+01
   5.423557923870000E+01   5.514708064270000E+01   5.607390104030000E+01
   5.701629788780000E+01   5.797453296810000E+01   5.894887246370000E+01
   5.993958703080000E+01   6.094695187420000E+01   6.197124682400000E+01
   6.301275641320000E+01   6.407176995659999E+01   6.514858163140001E+01
   6.624349055910000E+01   6.735680088789999E+01   6.848882187800000E+01
   6.963986798680000E+01   7.081025895680000E+01   7.200031990410000E+01
   7.321038140890001E+01   7.444077960720000E+01   7.569185628400000E+01
   7.696395896880000E+01   7.825744103170000E+01   7.957266178140000E+01
   8.090998656559999E+01   8.226978687190000E+01   8.365244043140000E+01
   8.505833132350000E+01   8.648785008240000E+01   8.794139380580000E+01
   8.941936626530000E+01   9.092217801830000E+01   9.245024652210000E+01
   9.400399625000000E+01   9.558385880909999E+01   9.719027306040000E+01
   9.882368524040000E+01   1.004845490850000E+02   1.021733259560000E+02
   1.038904849700000E+02   1.056365031250000E+02   1.074118654370000E+02
   1.092170650760000E+02   1.110526034960000E+02   1.129189905810000E+02
   1.148167447840000E+02   1.167463932720000E+02   1.187084720690000E+02
   1.207035262110000E+02   1.227321098920000E+02   1.247947866200000E+02
   1.268921293750000E+02   1.290247207650000E+02   1.311931531910000E+02
   1.333980290080000E+02   1.356399606970000E+02   1.379195710310000E+02
   1.402374932490000E+02   1.425943712340000E+02   1.449908596880000E+02
   1.474276243200000E+02   1.499053420230000E+02   1.524247010680000E+02
   1.549864012940000E+02   1.575911543000000E+02   1.602396836460000E+02
   1.629327250510000E+02   1.656710265990000E+02   1.684553489480000E+02
   1.712864655380000E+02   1.741651628090000E+02   1.770922404180000E+02
   1.800685114600000E+02   1.830948026960000E+02   1.861719547830000E+02
   1.893008225040000E+02   1.924822750100000E+02   1.957171960580000E+02
   1.990064842580000E+02   2.023510533220000E+02   2.057518323180000E+02
    </PP_R>
    <PP_RAB>
   3.377340613160000E-07   3.434101315340000E-07   3.491815956620000E-07
   3.550500569240000E-07   3.610171454840000E-07   3.670845189060000E-07
   3.732538626110000E-07   3.795268903440000E-07   3.859053446530000E-07
   3.923909973730000E-07   3.989856501160000E-07   4.056911347710000E-07
   4.125093140170000E-07   4.194420818350000E-07   4.264913640410000E-07
   4.336591188120000E-07   4.409473372370000E-07   4.483580438700000E-07
   4.558932972860000E-07   4.635551906620000E-07   4.713458523480000E-07
   4.792674464690000E-07   4.873221735180000E-07   4.955122709700000E-07
   5.038400139070000E-07   5.123077156420000E-07   5.209177283710000E-07
   5.296724438180000E-07   5.385742939050000E-07   5.476257514260000E-07
   5.568293307320000E-07   5.661875884330000E-07   5.757031241050000E-07
   5.853785810130000E-07   5.952166468470000E-07   6.052200544650000E-07
   6.153915826570000E-07   6.257340569120000E-07   6.362503502060000E-07
   6.469433838000000E-07   6.578161280500000E-07   6.688716032310000E-07
   6.801128803810000E-07   6.915430821490001E-07   7.031653836640000E-07
   7.149830134180000E-07   7.269992541620000E-07   7.392174438180000E-07
   7.516409764060000E-07   7.642733029870000E-07   7.771179326230000E-07
   7.901784333470000E-07   8.034584331620000E-07   8.169616210420000E-07
   8.306917479579999E-07   8.446526279230000E-07   8.588481390500000E-07
   8.732822246260000E-07   8.879588942140000E-07   9.028822247590000E-07
   9.180563617280000E-07   9.334855202570000E-07   9.491739863210000E-07
   9.651261179290000E-07   9.813463463310000E-07   9.978391772509999E-07
   1.014609192140000E-06   1.031661049430000E-06   1.048999485880000E-06
   1.066629317810000E-06   1.084555442530000E-06   1.102782839610000E-06
   1.121316572360000E-06   1.140161789140000E-06   1.159323724870000E-06
   1.178807702410000E-06   1.198619134120000E-06   1.218763523290000E-06
   1.239246465730000E-06   1.260073651260000E-06   1.281250865360000E-06
   1.302783990710000E-06   1.324679008880000E-06   1.346942001960000E-06
   1.369579154250000E-06   1.392596754010000E-06   1.416001195150000E-06
   1.439798979070000E-06   1.463996716400000E-06   1.488601128900000E-06
   1.513619051280000E-06   1.539057433140000E-06   1.564923340840000E-06
   1.591223959540000E-06   1.617966595120000E-06   1.645158676270000E-06
   1.672807756520000E-06   1.700921516350000E-06   1.729507765320000E-06
   1.758574444230000E-06   1.788129627340000E-06   1.818181524640000E-06
   1.848738484040000E-06   1.879808993800000E-06   1.911401684810000E-06
   1.943525333030000E-06   1.976188861890000E-06   2.009401344810000E-06
   2.043172007690000E-06   2.077510231490000E-06   2.112425554820000E-06
   2.147927676610000E-06   2.184026458790000E-06   2.220731929030000E-06
   2.258054283520000E-06   2.296003889840000E-06   2.334591289780000E-06
   2.373827202320000E-06   2.413722526560000E-06   2.454288344800000E-06
   2.495535925590000E-06   2.537476726840000E-06   2.580122399060000E-06
   2.623484788540000E-06   2.667575940660000E-06   2.712408103250000E-06
   2.757993729970000E-06   2.804345483800000E-06   2.851476240520000E-06
   2.899399092310000E-06   2.948127351370000E-06   2.997674553660000E-06
   3.048054462600000E-06   3.099281072930000E-06   3.151368614610000E-06
   3.204331556710000E-06   3.258184611520000E-06   3.312942738560000E-06
   3.368621148780000E-06   3.425235308750000E-06   3.482800945000000E-06
   3.541334048350000E-06   3.600850878370000E-06   3.661367967910000E-06
   3.722902127640000E-06   3.785470450790000E-06   3.849090317860000E-06
   3.913779401430000E-06   3.979555671110000E-06   4.046437398510000E-06
   4.114443162310000E-06   4.183591853450000E-06   4.253902680340000E-06
   4.325395174220000E-06   4.398089194570000E-06   4.472004934640000E-06
   4.547162927060000E-06   4.623584049530000E-06   4.701289530640000E-06
   4.780300955730000E-06   4.860640272940000E-06   4.942329799260000E-06
   5.025392226740000E-06   5.109850628820000E-06   5.195728466720000E-06
   5.283049595930000E-06   5.371838272880000E-06   5.462119161680000E-06
   5.553917340920000E-06   5.647258310690000E-06   5.742167999630000E-06
   5.838672772170000E-06   5.936799435790000E-06   6.036575248550000E-06
   6.138027926580000E-06   6.241185651830000E-06   6.346077079900000E-06
   6.452731347960000E-06   6.561178082890000E-06   6.671447409470000E-06
   6.783569958790000E-06   6.897576876720000E-06   7.013499832570000E-06
   7.131371027920000E-06   7.251223205520000E-06   7.373089658420000E-06
   7.497004239190000E-06   7.623001369340000E-06   7.751116048890000E-06
   7.881383866070000E-06   8.013841007220000E-06   8.148524266850001E-06
   8.285471057840000E-06   8.424719421840000E-06   8.566308039860000E-06
   8.710276242970000E-06   8.856664023260000E-06   9.005512044960001E-06
   9.156861655680000E-06   9.310754897970000E-06   9.467234520930000E-06