<UPF version="2.0.1">
  <PP_INFO>
    Generated by new atomic code, or converted to UPF format
    Author: 
    Generation date: 
    Pseudopotential type: US
    Element: Ru
    Functional: SLA  PZ   NOGX NOGC
    Suggested minimum cutoff for wavefunctions:   0. Ry
    Suggested minimum cutoff for charge density:   0. Ry
    The Pseudo was generated with a Non-Relativistic Calculation
    L component and cutoff radius for Local Potential:  0   0.0000
    Valence configuration: 
    nl pn  l   occ       Rcut    Rcut US       E pseu
    4S  1  0  2.00      0.000      0.000     0.000000
    4P  2  1  6.00      0.000      0.000     0.000000
    4D  3  2  6.00      0.000      0.000     0.000000
    5S  1  0  1.00      0.000      0.000     0.000000
    5P  2  1  0.00      0.000      0.000     0.000000
    Generation configuration: not available.
  </PP_INFO>
    <!-- END OF HUMAN READABLE SECTION -->
  <PP_HEADER generated="Generated by new atomic code, or converted to UPF format" author="" date="" comment="" element="Ru" pseudo_type="US" relativistic="no" is_ultrasoft="true" is_paw="false" is_coulomb="false" has_so="false" has_wfc="false" has_gipaw="false" paw_as_gipaw="false" core_correction="true" functional="SLA  PZ   NOGX NOGC" z_valence="16.000000000000000" total_psenergy="-192.89183168100001" wfc_cutoff="0.0000000000000000" rho_cutoff="0.0000000000000000" l_max="2" l_max_rho="0" l_local="0" mesh_size="967" number_of_wfc="5" number_of_proj="6"/>
  <PP_MESH>
    <PP_R>
   0.000000000000000E+00   3.483043087810000E-07   7.024623348510000E-07
   1.062572457720000E-06   1.428734710280000E-06   1.801050806640000E-06
   2.179624170320000E-06   2.564559963020000E-06   2.955965113840000E-06
   3.353948348930000E-06   3.758620221770000E-06   4.170093143790000E-06
   4.588481415690000E-06   5.013901259110000E-06   5.446470848980000E-06
   5.886310346290000E-06   6.333541931500000E-06   6.788289838500000E-06
   7.250680389070000E-06   7.720842027989999E-06   8.198905358759999E-06
   8.685003179799999E-06   9.179270521429999E-06   9.681844683299999E-06
   1.019286527260000E-05   1.071247424270000E-05   1.124081593290000E-05
   1.177803710800000E-05   1.232428699980000E-05   1.287971734760000E-05
   1.344448244140000E-05   1.401873916400000E-05   1.460264703480000E-05
   1.519636825410000E-05   1.580006774850000E-05   1.641391321590000E-05
   1.703807517320000E-05   1.767272700250000E-05   1.831804500010000E-05
   1.897420842520000E-05   1.964139954950000E-05   2.031980370840000E-05
   2.100960935170000E-05   2.171100809650000E-05   2.242419478040000E-05
   2.314936751530000E-05   2.388672774280000E-05   2.463648028980000E-05
   2.539883342590000E-05   2.617399892070000E-05   2.696219210290000E-05
   2.776363192010000E-05   2.857854099960000E-05   2.940714571040000E-05
   3.024967622570000E-05   3.110636658720000E-05   3.197745477000000E-05
   3.286318274850000E-05   3.376379656410000E-05   3.467954639310000E-05
   3.561068661620000E-05   3.655747588950000E-05   3.752017721620000E-05
   3.849905801940000E-05   3.949439021680000E-05   4.050645029600000E-05
   4.153551939120000E-05   4.258188336170000E-05   4.364583287070000E-05
   4.472766346670000E-05   4.582767566510000E-05   4.694617503190000E-05
   4.808347226870000E-05   4.923988329850000E-05   5.041572935420000E-05
   5.161133706720000E-05   5.282703855840000E-05   5.406317153050000E-05
   5.532007936170000E-05   5.659811120130000E-05   5.789762206610000E-05
   5.921897293990000E-05   6.056253087310000E-05   6.192866908480000E-05
   6.331776706659999E-05   6.473021068800000E-05   6.616639230360000E-05
   6.762671086190000E-05   6.911157201630000E-05   7.062138823790000E-05
   7.215657892980001E-05   7.371757054359999E-05   7.530479669820000E-05
   7.691869830000000E-05   7.855972366519999E-05   8.022832864500000E-05
   8.192497675130000E-05   8.365013928630000E-05   8.540429547280001E-05
   8.718793258769999E-05   8.900154609720000E-05   9.084563979460000E-05
   9.272072593990000E-05   9.462732540250000E-05   9.656596780550000E-05
   9.853719167330000E-05   1.005415445810000E-04   1.025795833050000E-04
   1.046518739820000E-04   1.067589922600000E-04   1.089015234650000E-04
   1.110800627570000E-04   1.132952152990000E-04   1.155475964280000E-04
   1.178378318170000E-04   1.201665576600000E-04   1.225344208380000E-04
   1.249420791070000E-04   1.273902012760000E-04   1.298794673960000E-04
   1.324105689440000E-04   1.349842090210000E-04   1.376011025430000E-04
   1.402619764430000E-04   1.429675698690000E-04   1.457186343910000E-04
   1.485159342130000E-04   1.513602463800000E-04   1.542523609970000E-04
   1.571930814470000E-04   1.601832246170000E-04   1.632236211210000E-04
   1.663151155330000E-04   1.694585666220000E-04   1.726548475880000E-04
   1.759048463080000E-04   1.792094655810000E-04   1.825696233760000E-04
   1.859862530940000E-04   1.894603038200000E-04   1.929927405900000E-04
   1.965845446590000E-04   2.002367137740000E-04   2.039502624500000E-04
   2.077262222520000E-04   2.115656420820000E-04   2.154695884700000E-04
   2.194391458700000E-04   2.234754169640000E-04   2.275795229640000E-04
   2.317526039250000E-04   2.359958190630000E-04   2.403103470770000E-04
   2.446973864740000E-04   2.491581559040000E-04   2.536938945000000E-04
   2.583058622160000E-04   2.629953401860000E-04   2.677636310720000E-04
   2.726120594300000E-04   2.775419720770000E-04   2.825547384650000E-04
   2.876517510600000E-04   2.928344257330000E-04   2.981042021500000E-04
   3.034625441690000E-04   3.089109402550000E-04   3.144509038860000E-04
   3.200839739760000E-04   3.258117153020000E-04   3.316357189420000E-04
   3.375576027110000E-04   3.435790116160000E-04   3.497016183070000E-04
   3.559271235500000E-04   3.622572566910000E-04   3.686937761400000E-04
   3.752384698620000E-04   3.818931558690000E-04   3.886596827280000E-04
   3.955399300720000E-04   4.025358091270000E-04   4.096492632360000E-04
   4.168822684050000E-04   4.242368338490000E-04   4.317150025500000E-04
   4.393188518240000E-04   4.470504939010000E-04   4.549120765100000E-04
   4.629057834730000E-04   4.710338353170000E-04   4.792984898850000E-04
   4.877020429680000E-04   4.962468289410000E-04   5.049352214110000E-04
   5.137696338740000E-04   5.227525203920000E-04   5.318863762690000E-04
   5.411737387450000E-04   5.506171877040000E-04   5.602193463850000E-04
   5.699828821180000E-04   5.799105070580000E-04   5.900049789430000E-04
   6.002691018580000E-04   6.107057270129999E-04   6.213177535390000E-04
   6.321081292880001E-04   6.430798516580001E-04   6.542359684180000E-04
   6.655795785630000E-04   6.771138331670000E-04   6.888419362650000E-04
   7.007671457390000E-04   7.128927742230000E-04   7.252221900250001E-04
   7.377588180630000E-04   7.505061408140000E-04   7.634676992820000E-04
   7.766470939840000E-04   7.900479859480000E-04   8.036740977290000E-04
   8.175292144470000E-04   8.316171848350001E-04   8.459419223070000E-04
   8.605074060490000E-04   8.753176821240000E-04   8.903768645910000E-04
   9.056891366550000E-04   9.212587518210000E-04   9.370900350850000E-04
   9.531873841250000E-04   9.695552705310000E-04   9.861982410440001E-04
   1.003120918820000E-03   1.020328004710000E-03   1.037824278560000E-03
   1.055614600580000E-03   1.073703912630000E-03   1.092097239630000E-03
   1.110799690960000E-03   1.129816461870000E-03   1.149152834910000E-03
   1.168814181430000E-03   1.188805963030000E-03   1.209133733120000E-03
   1.229803138430000E-03   1.250819920590000E-03   1.272189917740000E-03
   1.293919066120000E-03   1.316013401750000E-03   1.338479062080000E-03
   1.361322287720000E-03   1.384549424160000E-03   1.408166923530000E-03
   1.432181346390000E-03   1.456599363580000E-03   1.481427758030000E-03
   1.506673426690000E-03   1.532343382390000E-03   1.558444755850000E-03
   1.584984797610000E-03   1.611970880090000E-03   1.639410499580000E-03
   1.667311278380000E-03   1.695680966890000E-03   1.724527445760000E-03
   1.753858728080000E-03   1.783682961630000E-03   1.814008431090000E-03
   1.844843560420000E-03   1.876196915110000E-03   1.908077204650000E-03
   1.940493284860000E-03   1.973454160430000E-03   2.006968987360000E-03
   2.041047075540000E-03   2.075697891340000E-03   2.110931060190000E-03
   2.146756369320000E-03   2.183183770430000E-03   2.220223382480000E-03
   2.257885494480000E-03   2.296180568390000E-03   2.335119241950000E-03
   2.374712331730000E-03   2.414970836060000E-03   2.455905938120000E-03
   2.497529009020000E-03   2.539851611000000E-03   2.582885500620000E-03
   2.626642632000000E-03   2.671135160190000E-03   2.716375444500000E-03
   2.762376051990000E-03   2.809149760880000E-03   2.856709564170000E-03
   2.905068673230000E-03   2.954240521460000E-03   3.004238768010000E-03
   3.055077301610000E-03   3.106770244410000E-03   3.159331955880000E-03
   3.212777036840000E-03   3.267120333490000E-03   3.322376941530000E-03
   3.378562210390000E-03   3.435691747440000E-03   3.493781422360000E-03
   3.552847371550000E-03   3.612906002590000E-03   3.673973998840000E-03
   3.736068324000000E-03   3.799206226910000E-03   3.863405246270000E-03
   3.928683215570000E-03   3.995058267980000E-03   4.062548841450000E-03
   4.131173683800000E-03   4.200951857920000E-03   4.271902747090000E-03
   4.344046060350000E-03   4.417401837960000E-03   4.491990457000000E-03
   4.567832637030000E-03   4.644949445780000E-03   4.723362305100000E-03
   4.803092996850000E-03   4.884163668930000E-03   4.966596841520000E-03
   5.050415413250000E-03   5.135642667580000E-03   5.222302279300000E-03
   5.310418321100000E-03   5.400015270200000E-03   5.491118015230000E-03
   5.583751863090000E-03   5.677942546010000E-03   5.773716228660000E-03
   5.871099515460000E-03   5.970119457960000E-03   6.070803562320000E-03
   6.173179797010000E-03   6.277276600520000E-03   6.383122889300000E-03
   6.490748065790000E-03   6.600182026540000E-03   6.711455170600000E-03
   6.824598407880000E-03   6.939643167780000E-03   7.056621407930000E-03
   7.175565623030000E-03   7.296508853910000E-03   7.419484696690000E-03
   7.544527312100000E-03   7.671671435030000E-03   7.800952384090000E-03
   7.932406071489999E-03   8.066069013000001E-03   8.201978338050000E-03
   8.340171800130001E-03   8.480687787190000E-03   8.623565332360000E-03
   8.768844124750000E-03   8.916564520520000E-03   9.066767554070000E-03
   9.219494949430000E-03   9.374789131860000E-03   9.532693239619999E-03
   9.693251135980000E-03   9.856507421400000E-03   1.002250744590000E-02
   1.019129732160000E-02   1.036292393580000E-02   1.053743496350000E-02
   1.071487888130000E-02   1.089530498010000E-02   1.107876337960000E-02
   1.126530504150000E-02   1.145498178420000E-02   1.164784629700000E-02
   1.184395215440000E-02   1.204335383170000E-02   1.224610671950000E-02
   1.245226713930000E-02   1.266189235920000E-02   1.287504060980000E-02
   1.309177110030000E-02   1.331214403510000E-02   1.353622063020000E-02
   1.376406313060000E-02   1.399573482740000E-02   1.423130007520000E-02
   1.447082431040000E-02   1.471437406900000E-02   1.496201700530000E-02
   1.521382191070000E-02   1.546985873250000E-02   1.573019859370000E-02
   1.599491381260000E-02   1.626407792290000E-02   1.653776569420000E-02
   1.681605315260000E-02   1.709901760200000E-02   1.738673764540000E-02
   1.767929320700000E-02   1.797676555390000E-02   1.827923731940000E-02
   1.858679252530000E-02   1.889951660560000E-02   1.921749643010000E-02
   1.954082032860000E-02   1.986957811540000E-02   2.020386111410000E-02
   2.054376218340000E-02   2.088937574240000E-02   2.124079779700000E-02
   2.159812596670000E-02   2.196145951170000E-02   2.233089936040000E-02
   2.270654813710000E-02   2.308851019140000E-02   2.347689162610000E-02
   2.387180032750000E-02   2.427334599500000E-02   2.468164017170000E-02
   2.509679627520000E-02   2.551892962940000E-02   2.594815749610000E-02
   2.638459910820000E-02   2.682837570230000E-02   2.727961055240000E-02
   2.773842900440000E-02   2.820495851100000E-02   2.867932866660000E-02
   2.916167124370000E-02   2.965212022950000E-02   3.015081186310000E-02
   3.065788467300000E-02   3.117347951600000E-02   3.169773961640000E-02
   3.223081060520000E-02   3.277284056110000E-02   3.332398005160000E-02
   3.388438217440000E-02   3.445420260050000E-02   3.503359961690000E-02
   3.562273417100000E-02   3.622176991510000E-02   3.683087325170000E-02
   3.745021338030000E-02   3.807996234370000E-02   3.872029507630000E-02
   3.937138945230000E-02   4.003342633550000E-02   4.070658962930000E-02
   4.139106632780000E-02   4.208704656790000E-02   4.279472368180000E-02
   4.351429425110000E-02   4.424595816110000E-02   4.498991865650000E-02
   4.574638239780000E-02   4.651555951870000E-02   4.729766368440000E-02
   4.809291215110000E-02   4.890152582620000E-02   4.972372933000000E-02
   5.055975105740000E-02   5.140982324230000E-02   5.227418202110000E-02
   5.315306749910000E-02   5.404672381680000E-02   5.495539921790000E-02
   5.587934611800000E-02   5.681882117490000E-02   5.777408536010000E-02
   5.874540403070000E-02   5.973304700380000E-02   6.073728863100000E-02
   6.175840787490000E-02   6.279668838600000E-02   6.385241858250000E-02
   6.492589172950000E-02   6.601740602080000E-02   6.712726466200000E-02
   6.825577595410000E-02   6.940325337990000E-02   7.057001569040000E-02
   7.175638699370000E-02   7.296269684520000E-02   7.418928033850000E-02
   7.543647819929999E-02   7.670463687940000E-02   7.799410865330000E-02
   7.930525171580000E-02   8.063843028180000E-02   8.199401468730000E-02
   8.337238149210000E-02   8.477391358490000E-02   8.619900028900000E-02
   8.764803747119999E-02   8.912142765090000E-02   9.061958011280000E-02
   9.214291102000000E-02   9.369184352960000E-02   9.526680791080000E-02
   9.686824166370001E-02   9.849658964140000E-02   1.001523041730000E-01
   1.018358451900000E-01   1.035476803540000E-01   1.052882851850000E-01
   1.070581431960000E-01   1.088577460250000E-01   1.106875935750000E-01
   1.125481941460000E-01   1.144400645860000E-01   1.163637304250000E-01
   1.183197260280000E-01   1.203085947390000E-01   1.223308890350000E-01
   1.243871706760000E-01   1.264780108670000E-01   1.286039904080000E-01
   1.307656998650000E-01   1.329637397240000E-01   1.351987205670000E-01
   1.374712632370000E-01   1.397819990100000E-01   1.421315697720000E-01
   1.445206281960000E-01   1.469498379260000E-01   1.494198737560000E-01
   1.519314218250000E-01   1.544851798010000E-01   1.570818570770000E-01
   1.597221749690000E-01   1.624068669160000E-01   1.651366786820000E-01
   1.679123685670000E-01   1.707347076140000E-01   1.736044798230000E-01
   1.765224823710000E-01   1.794895258350000E-01   1.825064344110000E-01
   1.855740461500000E-01   1.886932131850000E-01   1.918648019720000E-01
   1.950896935280000E-01   1.983687836760000E-01   2.017029832970000E-01
   2.050932185790000E-01   2.085404312750000E-01   2.120455789660000E-01
   2.156096353270000E-01   2.192335903970000E-01   2.229184508530000E-01
   2.266652402920000E-01   2.304749995120000E-01   2.343487868040000E-01
   2.382876782450000E-01   2.422927679960000E-01   2.463651686100000E-01
   2.505060113340000E-01   2.547164464280000E-01   2.589976434860000E-01
   2.633507917560000E-01   2.677771004740000E-01   2.722777991990000E-01
   2.768541381530000E-01   2.815073885720000E-01   2.862388430550000E-01
   2.910498159250000E-01   2.959416435950000E-01   3.009156849360000E-01
   3.059733216600000E-01   3.111159586970000E-01   3.163450245920000E-01
   3.216619718960000E-01   3.270682775720000E-01   3.325654434080000E-01
   3.381549964300000E-01   3.438384893260000E-01   3.496175008810000E-01
   3.554936364140000E-01   3.614685282220000E-01   3.675438360360000E-01
   3.737212474800000E-01   3.800024785420000E-01   3.863892740480000E-01
   3.928834081500000E-01   3.994866848150000E-01   4.062009383290000E-01
   4.130280338060000E-01   4.199698677060000E-01   4.270283683590000E-01
   4.342054965060000E-01   4.415032458400000E-01   4.489236435610000E-01
   4.564687509370000E-01   4.641406638800000E-01   4.719415135280000E-01
   4.798734668310000E-01   4.879387271630000E-01   4.961395349240000E-01
   5.044781681700000E-01   5.129569432410001E-01   5.215782154070000E-01
   5.303443795220000E-01   5.392578706870000E-01   5.483211649300000E-01
   5.575367798899999E-01   5.669072755190000E-01   5.764352547940000E-01
   5.861233644370000E-01   5.959742956510000E-01   6.059907848700000E-01
   6.161756145160000E-01   6.265316137740000E-01   6.370616593760000E-01
   6.477686764050000E-01   6.586556390980000E-01   6.697255716840000E-01
   6.809815492140000E-01   6.924266984220000E-01   7.040641985880000E-01
   7.158972824270000E-01   7.279292369820000E-01   7.401634045410000E-01
   7.526031835620000E-01   7.652520296190000E-01   7.781134563620000E-01
   7.911910364920000E-01   8.044884027540000E-01   8.180092489470000E-01
   8.317573309480000E-01   8.457364677570000E-01   8.599505425590001E-01
   8.744035037970000E-01   8.890993662770000E-01   9.040422122770000E-01
   9.192361926840000E-01   9.346855281460000E-01   9.503945102430000E-01
   9.663675026840000E-01   9.826089425130000E-01   9.991233413460000E-01
   1.015915286620000E+00   1.032989442880000E+00   1.050350553040000E+00
   1.068003439760000E+00   1.085953006730000E+00   1.104204240050000E+00
   1.122762209630000E+00   1.141632070570000E+00   1.160819064630000E+00
   1.180328521660000E+00   1.200165861060000E+00   1.220336593340000E+00
   1.240846321620000E+00   1.261700743160000E+00   1.282905651000000E+00
   1.304466935530000E+00   1.326390586130000E+00   1.348682692850000E+00
   1.371349448080000E+00   1.394397148280000E+00   1.417832195750000E+00
   1.441661100370000E+00   1.465890481430000E+00   1.490527069470000E+00
   1.515577708160000E+00   1.541049356150000E+00   1.566949089080000E+00
   1.593284101470000E+00   1.620061708780000E+00   1.647289349410000E+00
   1.674974586760000E+00   1.703125111360000E+00   1.731748742980000E+00
   1.760853432800000E+00   1.790447265660000E+00   1.820538462250000E+00
   1.851135381430000E+00   1.882246522550000E+00   1.913880527780000E+00
   1.946046184550000E+00   1.978752427980000E+00   2.012008343340000E+00
   2.045823168600000E+00   2.080206296990000E+00   2.115167279590000E+00
   2.150715828020000E+00   2.186861817100000E+00   2.223615287610000E+00
   2.260986449090000E+00   2.298985682660000E+00   2.337623543900000E+00
   2.376910765800000E+00   2.416858261730000E+00   2.457477128480000E+00
   2.498778649320000E+00   2.540774297170000E+00   2.583475737750000E+00
   2.626894832850000E+00   2.671043643600000E+00   2.715934433860000E+00
   2.761579673560000E+00   2.807992042250000E+00   2.855184432540000E+00
   2.903169953730000E+00   2.951961935440000E+00   3.001573931320000E+00
   3.052019722790000E+00   3.103313322910000E+00   3.155468980210000E+00
   3.208501182720000E+00   3.262424661940000E+00   3.317254396980000E+00
   3.373005618650000E+00   3.429693813780000E+00   3.487334729440000E+00
   3.545944377370000E+00   3.605539038420000E+00   3.666135267020000E+00
   3.727749895860000E+00   3.790400040510000E+00   3.854103104190000E+00
   3.918876782610000E+00   3.984739068870000E+00   4.051708258470000E+00
   4.119802954390000E+00   4.189042072270000E+00   4.259444845650000E+00
   4.331030831290000E+00   4.403819914660000E+00   4.477832315410000E+00
   4.553088593020000E+00   4.629609652500000E+00   4.707416750180000E+00
   4.786531499650000E+00   4.866975877740000E+00   4.948772230630000E+00
   5.031943280050000E+00   5.116512129600000E+00   5.202502271180000E+00
   5.289937591490000E+00   5.378842378680000E+00   5.469241329100000E+00
   5.561159554140000E+00   5.654622587240000E+00   5.749656390960000E+00
   5.846287364180000E+00   5.944542349460000E+00   6.044448640480000E+00
   6.146033989640000E+00   6.249326615740000E+00   6.354355211840000E+00
   6.461148953230000E+00   6.569737505510000E+00   6.680151032890000E+00
   6.792420206480000E+00   6.906576212900000E+00   7.022650762870000E+00
   7.140676100080000E+00   7.260685010110000E+00   7.382710829520000E+00
   7.506787455170000E+00   7.632949353590000E+00   7.761231570550000E+00
   7.891669740840000E+00   8.024300098099999E+00   8.159159484980000E+00
   8.296285363260001E+00   8.435715824360001E+00   8.577489599850001E+00
   8.721646072250000E+00   8.868225285959999E+00   9.017267958360000E+00
   9.168815491149999E+00   9.322909981850000E+00   9.479594235470000E+00
   9.638911776430000E+00   9.800906860610000E+00   9.965624487700000E+00
   1.013311041360000E+01   1.030341116340000E+01   1.047657404380000E+01
   1.065264715680000E+01   1.083167941270000E+01   1.101372054390000E+01
   1.119882111840000E+01   1.138703255440000E+01   1.157840713390000E+01
   1.177299801790000E+01   1.197085926050000E+01   1.217204582450000E+01
   1.237661359650000E+01   1.258461940190000E+01   1.279612102170000E+01
   1.301117720750000E+01   1.322984769870000E+01   1.345219323840000E+01
   1.367827559070000E+01   1.390815755770000E+01   1.414190299700000E+01
   1.437957683930000E+01   1.462124510680000E+01   1.486697493100000E+01
   1.511683457190000E+01   1.537089343640000E+01   1.562922209810000E+01
   1.589189231670000E+01   1.615897705770000E+01   1.643055051320000E+01
   1.670668812180000E+01   1.698746659040000E+01   1.727296391460000E+01
   1.756325940120000E+01   1.785843368970000E+01   1.815856877470000E+01
   1.846374802920000E+01   1.877405622710000E+01   1.908957956700000E+01
   1.941040569650000E+01   1.973662373580000E+01   2.006832430330000E+01
   2.040559954020000E+01   2.074854313610000E+01   2.109725035540000E+01
   2.145181806340000E+01   2.181234475350000E+01   2.217893057420000E+01
   2.255167735730000E+01   2.293068864610000E+01   2.331606972380000E+01
   2.370792764310000E+01   2.410637125620000E+01   2.451151124420000E+01
   2.492346014880000E+01   2.534233240270000E+01   2.576824436210000E+01
   2.620131433870000E+01   2.664166263230000E+01   2.708941156480000E+01
   2.754468551390000E+01   2.800761094730000E+01   2.847831645850000E+01
   2.895693280210000E+01   2.944359293000000E+01   2.993843202890000E+01
   3.044158755710000E+01   3.095319928340000E+01   3.147340932530000E+01
   3.200236218920000E+01   3.254020480950000E+01   3.308708659070000E+01
   3.364315944780000E+01   3.420857784900000E+01   3.478349885870000E+01
   3.536808218080000E+01   3.596249020340000E+01   3.656688804350000E+01
   3.718144359350000E+01   3.780632756710000E+01   3.844171354720000E+01
   3.908777803400000E+01   3.974470049400000E+01   4.041266340990000E+01
   4.109185233120000E+01   4.178245592600000E+01   4.248466603290000E+01
   4.319867771490000E+01   4.392468931320000E+01   4.466290250220000E+01
   4.541352234600000E+01   4.617675735480000E+01   4.695281954340000E+01
   4.774192448950000E+01   4.854429139410000E+01   4.936014314190000E+01
   5.018970636380000E+01   5.103321149920000E+01   5.189089286060000E+01
   5.276298869840000E+01   5.364974126690000E+01   5.455139689210000E+01
   5.546820603960000E+01   5.640042338450000E+01   5.734830788220000E+01
   5.831212283980000E+01   5.929213599010000E+01   6.028861956520000E+01
   6.130185037240000E+01   6.233210987140000E+01   6.337968425180000E+01
   6.444486451349999E+01   6.552794654650000E+01   6.662923121400000E+01
   6.774902443540000E+01   6.888763727180000E+01   7.004538601160000E+01
   7.122259225920000E+01   7.241958302400000E+01   7.363669081110000E+01
   7.487425371370000E+01   7.613261550730000E+01   7.741212574500000E+01
   7.871313985450000E+01   8.003601923690000E+01   8.138113136730000E+01
   8.274884989660001E+01   8.413955475530000E+01   8.555363225940000E+01
   8.699147521720000E+01   8.845348303880000E+01   8.994006184689999E+01
   9.145162458960000E+01   9.298859115510000E+01   9.455138848850000E+01
   9.614045071020000E+01   9.775621923660000E+01   9.939914290270001E+01
   1.010696780870000E+02   1.027682888370000E+02   1.044954470010000E+02
   1.062516323550000E+02   1.080373327410000E+02   1.098530441970000E+02
   1.116992711000000E+02   1.135765263030000E+02   1.154853312760000E+02
   1.174262162570000E+02   1.193997203910000E+02   1.214063918890000E+02
   1.234467881700000E+02   1.255214760250000E+02   1.276310317700000E+02
   1.297760414060000E+02   1.319571007830000E+02   1.341748157630000E+02
   1.364298023950000E+02   1.387226870770000E+02   1.410541067360000E+02
   1.434247090050000E+02   1.458351523980000E+02   1.482861065000000E+02
   1.507782521450000E+02   1.533122816140000E+02   1.558888988200000E+02
   1.585088195050000E+02   1.611727714430000E+02   1.638814946380000E+02
   1.666357415290000E+02   1.694362772040000E+02   1.722838796060000E+02
   1.751793397550000E+02   1.781234619640000E+02   1.811170640640000E+02
   1.841609776290000E+02   1.872560482120000E+02   1.904031355730000E+02
   1.936031139250000E+02   1.968568721690000E+02   2.001653141500000E+02
   2.035293589000000E+02
    </PP_R>
    <PP_RAB>
   3.454098354370000E-07   3.512149072500000E-07   3.571175410180000E-07
   3.631193763990000E-07   3.692220806090000E-07   3.754273488810000E-07
   3.817369049430000E-07   3.881525014880000E-07   3.946759206680000E-07
   4.013089745860000E-07   4.080535058000000E-07   4.149113878340000E-07
   4.218845256990000E-07   4.289748564230000E-07   4.361843495870000E-07
   4.435150078750000E-07   4.509688676290000E-07   4.585479994120000E-07
   4.662545085880000E-07   4.740905359040000E-07   4.820582580830000E-07
   4.901598884340000E-07   4.983976774610000E-07   5.067739134920000E-07
   5.152909233139999E-07   5.239510728160000E-07   5.327567676520000E-07
   5.417104539040000E-07   5.508146187670000E-07   5.600717912310000E-07
   5.694845427950000E-07   5.790554881710000E-07   5.887872860170000E-07
   5.986826396730000E-07   6.087442979120000E-07   6.189750557030000E-07
   6.293777549900000E-07   6.399552854780000E-07   6.507105854380000E-07
   6.616466425230000E-07   6.727664945960000E-07   6.840732305770000E-07
   6.955699912990000E-07   7.072599703790000E-07   7.191464151110000E-07
   7.312326273590000E-07   7.435219644840000E-07   7.560178402680000E-07
   7.687237258700000E-07   7.816431507820000E-07   7.947797038190000E-07
   8.081370341050000E-07   8.217188520980000E-07   8.355289306110000E-07
   8.495711058660000E-07   8.638492785580000E-07   8.783674149370000E-07
   8.931295479130000E-07   9.081397781730000E-07   9.234022753220000E-07
   9.389212790400000E-07   9.547011002630000E-07   9.707461223740001E-07
   9.870608024270001E-07   1.003649672380000E-06   1.020517340370000E-06
   1.037668491960000E-06   1.055107891460000E-06   1.072840383280000E-06
   1.090870893220000E-06   1.109204429860000E-06   1.127846085970000E-06
   1.146801039920000E-06   1.166074557080000E-06   1.185671991340000E-06
   1.205598786560000E-06   1.225860478080000E-06   1.246462694280000E-06
   1.267411158130000E-06   1.288711688790000E-06   1.310370203210000E-06
   1.332392717770000E-06   1.354785349990000E-06   1.377554320180000E-06
   1.400705953210000E-06   1.424246680240000E-06   1.448183040500000E-06
   1.472521683130000E-06   1.497269369040000E-06   1.522432972740000E-06
   1.548019484270000E-06   1.574036011160000E-06   1.600489780410000E-06
   1.627388140440000E-06   1.654738563190000E-06   1.682548646190000E-06
   1.710826114630000E-06   1.739578823540000E-06   1.768814759980000E-06
   1.798542045230000E-06   1.828768937060000E-06   1.859503832010000E-06
   1.890755267770000E-06   1.922531925480000E-06   1.954842632200000E-06
   1.987696363330000E-06   2.021102245120000E-06   2.055069557190000E-06
   2.089607735140000E-06   2.124726373110000E-06   2.160435226520000E-06
   2.196744214710000E-06   2.233663423760000E-06   2.271203109230000E-06
   2.309373699060000E-06   2.348185796430000E-06   2.387650182730000E-06
   2.427777820550000E-06   2.468579856710000E-06   2.510067625360000E-06
   2.552252651170000E-06   2.595146652450000E-06   2.638761544500000E-06
   2.683109442820000E-06   2.728202666580000E-06   2.774053741960000E-06
   2.820675405650000E-06   2.868080608430000E-06   2.916282518710000E-06
   2.965294526220000E-06   3.015130245720000E-06   3.065803520790000E-06
   3.117328427660000E-06   3.169719279140000E-06   3.222990628570000E-06
   3.277157273910000E-06   3.332234261780000E-06   3.388236891710000E-06
   3.445180720340000E-06   3.503081565770000E-06   3.561955511930000E-06
   3.621818913080000E-06   3.682688398340000E-06   3.744580876270000E-06
   3.807513539630000E-06   3.871503870130000E-06   3.936569643260000E-06
   4.002728933280000E-06   4.070000118180000E-06   4.138401884840000E-06
   4.207953234180000E-06   4.278673486490000E-06   4.350582286720000E-06
   4.423699610000000E-06   4.498045767170000E-06   4.573641410430000E-06
   4.650507539040000E-06   4.728665505210000E-06   4.808137019970000E-06
   4.888944159270000E-06   4.971109370050000E-06   5.054655476510000E-06
   5.139605686440000E-06   5.225983597660000E-06   5.313813204600000E-06
   5.403118904920000E-06   5.493925506360000E-06   5.586258233530000E-06
   5.680142735030000E-06   5.775605090480000E-06   5.872671817810000E-06
   5.971369880630000E-06   6.071726695700000E-06   6.173770140560000E-06
   6.277528561270000E-06   6.383030780280000E-06   6.490306104440000E-06
   6.599384333140000E-06   6.710295766590000E-06   6.823071214230000E-06
   6.937742003310000E-06   7.054339987550000E-06   7.172897556040000E-06
   7.293447642190000E-06   7.416023732920000E-06   7.540659877930000E-06
   7.667390699170000E-06   7.796251400460001E-06   7.927277777270001E-06
   8.060506226659999E-06   8.195973757380001E-06   8.333718000190000E-06
   8.473777218239999E-06   8.616190317790001E-06   8.760996858950000E-06
   8.908237066670001E-06   9.057951841970001E-06   9.210182773250001E-06
   9.364972147860000E-06   9.522362963830000E-06   9.682398941860000E-06