<UPF version="2.0.1">
  <PP_INFO>
    Generated by new atomic code, or converted to UPF format
    Author: 
    Generation date: 
    Pseudopotential type: US
    Element: S
    Functional:  SLA  PZ   NOGX NOGC
    Suggested minimum cutoff for wavefunctions:   0. Ry
    Suggested minimum cutoff for charge density:   0. Ry
    The Pseudo was generated with a Non-Relativistic Calculation
    L component and cutoff radius for Local Potential:  0   0.0000
    Valence configuration: 
    nl pn  l   occ       Rcut    Rcut US       E pseu
    3S  1  0  2.00      0.000      0.000     0.000000
    3P  2  1  4.00      0.000      0.000     0.000000
    Generation configuration: not available.
  </PP_INFO>
    <!-- END OF HUMAN READABLE SECTION -->
  <PP_HEADER generated="Generated by new atomic code, or converted to UPF format" author="" date="" comment="" element="S" pseudo_type="US" relativistic="no" is_ultrasoft="true" is_paw="false" is_coulomb="false" has_so="false" has_wfc="false" has_gipaw="false" paw_as_gipaw="false" core_correction="true" functional=" SLA  PZ   NOGX NOGC" z_valence="6.0000000000000000" total_psenergy="-23.746397529100001" wfc_cutoff="0.0000000000000000" rho_cutoff="0.0000000000000000" l_max="2" l_max_rho="0" l_local="0" mesh_size="907" number_of_wfc="2" number_of_proj="6"/>
  <PP_MESH>
    <PP_R>
   0.000000000000000E+00   9.578368491490000E-07   1.931771420840000E-06
   2.922074258720000E-06   3.929020453270000E-06   4.952889718250000E-06
   5.993966468370000E-06   7.052539898320000E-06   8.128904063060001E-06
   9.223357959570000E-06   1.033620560990000E-05   1.146775614540000E-05
   1.261832389310000E-05   1.378822846260000E-05   1.497779483470000E-05
   1.618735345230000E-05   1.741724031160000E-05   1.866779705590000E-05
   1.993937106990000E-05   2.123231557700000E-05   2.254698973660000E-05
   2.388375874450000E-05   2.524299393390000E-05   2.662507287910000E-05
   2.803037949960000E-05   2.945930416750000E-05   3.091224381540000E-05
   3.238960204710000E-05   3.389178924930000E-05   3.541922270600000E-05
   3.697232671390000E-05   3.855153270100000E-05   4.015727934560000E-05
   4.179001269890000E-05   4.345018630830000E-05   4.513826134390000E-05
   4.685470672620000E-05   4.859999925680000E-05   5.037462375020000E-05
   5.217907316920000E-05   5.401384876120000E-05   5.587946019810000E-05
   5.777642571710000E-05   5.970527226540000E-05   6.166653564610000E-05
   6.366076066710000E-05   6.568850129260000E-05   6.775032079710000E-05
   6.984679192130000E-05   7.197849703190001E-05   7.414602828290001E-05
   7.634998778020000E-05   7.859098774900000E-05   8.086965070360000E-05
   8.318660962070000E-05   8.554250811490000E-05   8.793800061740000E-05
   9.037375255850000E-05   9.285044055140000E-05   9.536875258090000E-05
   9.792938819450000E-05   1.005330586960000E-04   1.031804873440000E-04
   1.058724095530000E-04   1.086095730960000E-04   1.113927383140000E-04
   1.142226783260000E-04   1.171001792450000E-04   1.200260403940000E-04
   1.230010745330000E-04   1.260261080790000E-04   1.291019813380000E-04
   1.322295487390000E-04   1.354096790710000E-04   1.386432557240000E-04
   1.419311769350000E-04   1.452743560360000E-04   1.486737217090000E-04
   1.521302182450000E-04   1.556448058040000E-04   1.592184606820000E-04
   1.628521755850000E-04   1.665469599010000E-04   1.703038399830000E-04
   1.741238594330000E-04   1.780080793920000E-04   1.819575788350000E-04
   1.859734548700000E-04   1.900568230450000E-04   1.942088176540000E-04
   1.984305920570000E-04   2.027233189950000E-04   2.070881909200000E-04
   2.115264203250000E-04   2.160392400790000E-04   2.206279037740000E-04
   2.252936860660000E-04   2.300378830370000E-04   2.348618125500000E-04
   2.397668146160000E-04   2.447542517670000E-04   2.498255094350000E-04
   2.549819963350000E-04   2.602251448570000E-04   2.655564114650000E-04
   2.709772771020000E-04   2.764892475970000E-04   2.820938540890000E-04
   2.877926534500000E-04   2.935872287160000E-04   2.994791895280000E-04
   3.054701725800000E-04   3.115618420730000E-04   3.177558901760000E-04
   3.240540374980000E-04   3.304580335640000E-04   3.369696573040000E-04
   3.435907175440000E-04   3.503230535100000E-04   3.571685353380000E-04
   3.641290645960000E-04   3.712065748080000E-04   3.784030319950000E-04
   3.857204352190000E-04   3.931608171390000E-04   4.007262445760000E-04
   4.084188190860000E-04   4.162406775440000E-04   4.241939927400000E-04
   4.322809739790000E-04   4.405038676970000E-04   4.488649580830000E-04
   4.573665677170000E-04   4.660110582100000E-04   4.748008308680000E-04
   4.837383273480000E-04   4.928260303470000E-04   5.020664642850000E-04
   5.114621960090000E-04   5.210158355040000E-04   5.307300366210001E-04
   5.406074978120000E-04   5.506509628780000E-04   5.608632217370000E-04
   5.712471111920000E-04   5.818055157240000E-04   5.925413682910001E-04
   6.034576511440000E-04   6.145573966520000E-04   6.258436881510000E-04
   6.373196607930000E-04   6.489885024230000E-04   6.608534544610000E-04
   6.729178128030000E-04   6.851849287360000E-04   6.976582098740000E-04
   7.103411210950000E-04   7.232371855120000E-04   7.363499854480000E-04
   7.496831634330000E-04   7.632404232120000E-04   7.770255307770000E-04
   7.910423154150000E-04   8.052946707670000E-04   8.197865559110000E-04
   8.345219964650000E-04   8.495050857020000E-04   8.647399856859999E-04
   8.802309284330000E-04   8.959822170810000E-04   9.119982270910000E-04
   9.282834074560001E-04   9.448422819430000E-04   9.616794503460000E-04
   9.787995897630000E-04   9.962074559000001E-04   1.013907884390000E-03
   1.031905792120000E-03   1.050206178640000E-03   1.068814127500000E-03
   1.087734807700000E-03   1.106973475100000E-03   1.126535473900000E-03
   1.146426238110000E-03   1.166651293080000E-03   1.187216257010000E-03
   1.208126842520000E-03   1.229388858230000E-03   1.251008210400000E-03
   1.272990904550000E-03   1.295343047120000E-03   1.318070847180000E-03
   1.341180618160000E-03   1.364678779590000E-03   1.388571858880000E-03
   1.412866493150000E-03   1.437569431080000E-03   1.462687534740000E-03
   1.488227781550000E-03   1.514197266180000E-03   1.540603202560000E-03
   1.567452925830000E-03   1.594753894410000E-03   1.622513692090000E-03
   1.650740030110000E-03   1.679440749290000E-03   1.708623822230000E-03
   1.738297355540000E-03   1.768469592060000E-03   1.799148913150000E-03
   1.830343841050000E-03   1.862063041210000E-03   1.894315324730000E-03
   1.927109650780000E-03   1.960455129110000E-03   1.994361022570000E-03
   2.028836749670000E-03   2.063891887240000E-03   2.099536173020000E-03
   2.135779508460000E-03   2.172631961360000E-03   2.210103768760000E-03
   2.248205339730000E-03   2.286947258300000E-03   2.326340286340000E-03
   2.366395366640000E-03   2.407123625840000E-03   2.448536377630000E-03
   2.490645125800000E-03   2.533461567510000E-03   2.576997596480000E-03
   2.621265306340000E-03   2.666276993960000E-03   2.712045162870000E-03
   2.758582526750000E-03   2.805902012940000E-03   2.854016766050000E-03
   2.902940151600000E-03   2.952685759730000E-03   3.003267408980000E-03
   3.054699150140000E-03   3.106995270140000E-03   3.160170296010000E-03
   3.214238998930000E-03   3.269216398340000E-03   3.325117766080000E-03
   3.381958630680000E-03   3.439754781630000E-03   3.498522273780000E-03
   3.558277431830000E-03   3.619036854800000E-03   3.680817420720000E-03
   3.743636291230000E-03   3.807510916430000E-03   3.872459039690000E-03
   3.938498702570000E-03   4.005648249840000E-03   4.073926334590000E-03
   4.143351923390000E-03   4.213944301570000E-03   4.285723078580000E-03
   4.358708193430000E-03   4.432919920230000E-03   4.508378873840000E-03
   4.585106015550000E-03   4.663122658950000E-03   4.742450475840000E-03
   4.823111502220000E-03   4.905128144470000E-03   4.988523185500000E-03
   5.073319791150000E-03   5.159541516560000E-03   5.247212312780000E-03
   5.336356533360000E-03   5.426998941170000E-03   5.519164715230000E-03
   5.612879457740000E-03   5.708169201180000E-03   5.805060415520000E-03
   5.903580015620000E-03   6.003755368680000E-03   6.105614301810000E-03
   6.209185109830000E-03   6.314496563060000E-03   6.421577915370000E-03
   6.530458912270000E-03   6.641169799170000E-03   6.753741329820000E-03
   6.868204774800000E-03   6.984591930250000E-03   7.102935126700000E-03
   7.223267238000000E-03   7.345621690520000E-03   7.470032472390000E-03
   7.596534142960000E-03   7.725161842410000E-03   7.855951301470000E-03
   7.988938851389999E-03   8.124161434009999E-03   8.261656612030000E-03
   8.401462579440000E-03   8.543618172130001E-03   8.688162878670001E-03
   8.835136851310000E-03   8.984580917090000E-03   9.136536589209999E-03
   9.291046078570000E-03   9.448152305450000E-03   9.607898911479999E-03
   9.770330271750000E-03   9.935491507130001E-03   1.010342849680000E-02
   1.027418789100000E-02   1.044781712400000E-02   1.062436442720000E-02
   1.080387884280000E-02   1.098641023690000E-02   1.117200931400000E-02
   1.136072763040000E-02   1.155261760930000E-02   1.174773255450000E-02
   1.194612666590000E-02   1.214785505440000E-02   1.235297375680000E-02
   1.256153975180000E-02   1.277361097590000E-02   1.298924633900000E-02
   1.320850574130000E-02   1.343145008960000E-02   1.365814131420000E-02
   1.388864238640000E-02   1.412301733580000E-02   1.436133126810000E-02
   1.460365038300000E-02   1.485004199300000E-02   1.510057454190000E-02
   1.535531762350000E-02   1.561434200150000E-02   1.587771962880000E-02
   1.614552366750000E-02   1.641782850940000E-02   1.669470979640000E-02
   1.697624444180000E-02   1.726251065140000E-02   1.755358794560000E-02
   1.784955718090000E-02   1.815050057300000E-02   1.845650171910000E-02
   1.876764562170000E-02   1.908401871140000E-02   1.940570887180000E-02
   1.973280546330000E-02   2.006539934830000E-02   2.040358291590000E-02
   2.074745010830000E-02   2.109709644630000E-02   2.145261905620000E-02
   2.181411669660000E-02   2.218168978570000E-02   2.255544042970000E-02
   2.293547245040000E-02   2.332189141480000E-02   2.371480466400000E-02
   2.411432134310000E-02   2.452055243140000E-02   2.493361077370000E-02
   2.535361111090000E-02   2.578067011260000E-02   2.621490640890000E-02
   2.665644062390000E-02   2.710539540880000E-02   2.756189547620000E-02
   2.802606763450000E-02   2.849804082340000E-02   2.897794614970000E-02
   2.946591692350000E-02   2.996208869530000E-02   3.046659929380000E-02
   3.097958886410000E-02   3.150119990660000E-02   3.203157731670000E-02
   3.257086842470000E-02   3.311922303730000E-02   3.367679347860000E-02
   3.424373463300000E-02   3.482020398780000E-02   3.540636167700000E-02
   3.600237052590000E-02   3.660839609650000E-02   3.722460673310000E-02
   3.785117360920000E-02   3.848827077520000E-02   3.913607520670000E-02
   3.979476685350000E-02   4.046452868970000E-02   4.114554676470000E-02
   4.183801025440000E-02   4.254211151430000E-02   4.325804613260000E-02
   4.398601298460000E-02   4.472621428800000E-02   4.547885565910000E-02
   4.624414616980000E-02   4.702229840560000E-02   4.781352852490000E-02
   4.861805631910000E-02   4.943610527320000E-02   5.026790262830000E-02
   5.111367944450000E-02   5.197367066540000E-02   5.284811518280000E-02
   5.373725590370000E-02   5.464133981730000E-02   5.556061806390000E-02
   5.649534600440000E-02   5.744578329150000E-02   5.841219394160000E-02
   5.939484640840000E-02   6.039401365730000E-02   6.140997324100000E-02
   6.244300737720000E-02   6.349340302629999E-02   6.456145197179999E-02
   6.564745090070000E-02   6.675170148640000E-02   6.787451047220000E-02
   6.901618975690001E-02   7.017705648080000E-02   7.135743311440000E-02
   7.255764754770000E-02   7.377803318130000E-02   7.501892901899999E-02
   7.628067976220000E-02   7.756363590520000E-02   7.886815383300000E-02
   8.019459592010000E-02   8.154333063120001E-02   8.291473262340000E-02
   8.430918285070001E-02   8.572706866910000E-02   8.716878394499999E-02
   8.863472916420000E-02   9.012531154310000E-02   9.164094514189999E-02
   9.318205097970000E-02   9.474905715140000E-02   9.634239894650000E-02
   9.796251897030001E-02   9.960986726640000E-02   1.012849014420000E-01
   1.029880867960000E-01   1.047198964450000E-01   1.064808114600000E-01
   1.082713209940000E-01   1.100919224230000E-01   1.119431214810000E-01
   1.138254324020000E-01   1.157393780620000E-01   1.176854901250000E-01
   1.196643091910000E-01   1.216763849430000E-01   1.237222763050000E-01
   1.258025515940000E-01   1.279177886760000E-01   1.300685751320000E-01
   1.322555084150000E-01   1.344791960220000E-01   1.367402556570000E-01
   1.390393154080000E-01   1.413770139160000E-01   1.437540005580000E-01
   1.461709356230000E-01   1.486284904960000E-01   1.511273478490000E-01
   1.536682018240000E-01   1.562517582310000E-01   1.588787347400000E-01
   1.615498610840000E-01   1.642658792600000E-01   1.670275437350000E-01
   1.698356216560000E-01   1.726908930620000E-01   1.755941511020000E-01
   1.785462022560000E-01   1.815478665570000E-01   1.845999778200000E-01
   1.877033838740000E-01   1.908589467950000E-01   1.940675431490000E-01
   1.973300642330000E-01   2.006474163240000E-01   2.040205209310000E-01
   2.074503150480000E-01   2.109377514180000E-01   2.144837987970000E-01
   2.180894422190000E-01   2.217556832750000E-01   2.254835403900000E-01
   2.292740491030000E-01   2.331282623580000E-01   2.370472507950000E-01
   2.410321030460000E-01   2.450839260400000E-01   2.492038453100000E-01
   2.533930053050000E-01   2.576525697070000E-01   2.619837217550000E-01
   2.663876645750000E-01   2.708656215140000E-01   2.754188364760000E-01
   2.800485742730000E-01   2.847561209740000E-01   2.895427842590000E-01
   2.944098937890000E-01   2.993588015700000E-01   3.043908823300000E-01
   3.095075339020000E-01   3.147101776100000E-01   3.200002586680000E-01
   3.253792465760000E-01   3.308486355320000E-01   3.364099448450000E-01
   3.420647193600000E-01   3.478145298840000E-01   3.536609736230000E-01
   3.596056746280000E-01   3.656502842410000E-01   3.717964815610000E-01
   3.780459739030000E-01   3.844004972780000E-01   3.908618168730000E-01
   3.974317275400000E-01   4.041120542960000E-01   4.109046528300000E-01
   4.178114100200000E-01   4.248342444520000E-01   4.319751069610000E-01
   4.392359811640000E-01   4.466188840180000E-01   4.541258663760000E-01
   4.617590135600000E-01   4.695204459380000E-01   4.774123195120000E-01
   4.854368265210000E-01   4.935961960460000E-01   5.018926946309999E-01
   5.103286269130000E-01   5.189063362590000E-01   5.276282054220000E-01
   5.364966572010000E-01   5.455141551100000E-01   5.546832040680000E-01
   5.640063510920000E-01   5.734861860050000E-01   5.831253421560000E-01
   5.929264971500000E-01   6.028923735920000E-01   6.130257398470000E-01
   6.233294108030000E-01   6.338062486570000E-01   6.444591637100000E-01
   6.552911151730000E-01   6.663051119900000E-01   6.775042136770000E-01
   6.888915311670000E-01   7.004702276770000E-01   7.122435195860000E-01
   7.242146773290000E-01   7.363870263030000E-01   7.487639477960000E-01
   7.613488799210000E-01   7.741453185730000E-01   7.871568184010000E-01
   8.003869937940000E-01   8.138395198850000E-01   8.275181335739999E-01
   8.414266345650000E-01   8.555688864180000E-01   8.699488176280000E-01
   8.845704227130000E-01   8.994377633240001E-01   9.145549693730000E-01
   9.299262401820000E-01   9.455558456460000E-01   9.614481274230000E-01
   9.776075001390000E-01   9.940384526110000E-01   1.010745549100000E+00
   1.027733430570000E+00   1.045006815990000E+00   1.062570503630000E+00
   1.080429372410000E+00   1.098588383240000E+00   1.117052580410000E+00
   1.135827092970000E+00   1.154917136190000E+00   1.174328012990000E+00
   1.194065115390000E+00   1.214133926060000E+00   1.234540019790000E+00
   1.255289065080000E+00   1.276386825670000E+00   1.297839162200000E+00
   1.319652033790000E+00   1.341831499700000E+00   1.364383721040000E+00
   1.387314962470000E+00   1.410631593910000E+00   1.434340092370000E+00
   1.458447043690000E+00   1.482959144390000E+00   1.507883203560000E+00
   1.533226144700000E+00   1.558995007680000E+00   1.585196950680000E+00
   1.611839252200000E+00   1.638929313040000E+00   1.666474658390000E+00
   1.694482939920000E+00   1.722961937880000E+00   1.751919563290000E+00
   1.781363860110000E+00   1.811303007520000E+00   1.841745322130000E+00
   1.872699260340000E+00   1.904173420660000E+00   1.936176546120000E+00
   1.968717526670000E+00   2.001805401700000E+00   2.035449362490000E+00
   2.069658754800000E+00   2.104443081450000E+00   2.139812004990000E+00
   2.175775350350000E+00   2.212343107570000E+00   2.249525434600000E+00
   2.287332660110000E+00   2.325775286330000E+00   2.364863992040000E+00
   2.404609635440000E+00   2.445023257260000E+00   2.486116083760000E+00
   2.527899529880000E+00   2.570385202400000E+00   2.613584903170000E+00
   2.657510632380000E+00   2.702174591910000E+00   2.747589188700000E+00
   2.793767038210000E+00   2.840720967910000E+00   2.888464020870000E+00
   2.937009459350000E+00   2.986370768510000E+00   3.036561660140000E+00
   3.087596076470000E+00   3.139488194070000E+00   3.192252427740000E+00
   3.245903434550000E+00   3.300456117910000E+00   3.355925631690000E+00
   3.412327384450000E+00   3.469677043690000E+00   3.527990540260000E+00
   3.587284072720000E+00   3.647574111870000E+00   3.708877405340000E+00
   3.771210982210000E+00   3.834592157770000E+00   3.899038538310000E+00
   3.964568026010000E+00   4.031198823930000E+00   4.098949441060000E+00
   4.167838697430000E+00   4.237885729420000E+00   4.309109994960000E+00
   4.381531279050000E+00   4.455169699160000E+00   4.530045710880000E+00
   4.606180113600000E+00   4.683594056250000E+00   4.762309043190000E+00
   4.842346940210000E+00   4.923729980560000E+00   5.006480771190000E+00
   5.090622298940000E+00   5.176177937000000E+00   5.263171451390000E+00
   5.351627007510000E+00   5.441569176940000E+00   5.533022944190000E+00
   5.626013713660000E+00   5.720567316730000E+00   5.816710018880000E+00
   5.914468527060000E+00   6.013869997020000E+00   6.114942040930000E+00
   6.217712735000000E+00   6.322210627310000E+00   6.428464745720000E+00
   6.536504605950000E+00   6.646360219760000E+00   6.758062103320000E+00
   6.871641285630000E+00   6.987129317210000E+00   7.104558278810000E+00
   7.223960790330000E+00   7.345370019900000E+00   7.468819693100000E+00
   7.594344102300000E+00   7.721978116190000E+00   7.851757189480000E+00
   7.983717372750000E+00   8.117895322470000E+00   8.254328311140000E+00
   8.393054237690000E+00   8.534111637990000E+00   8.677539695569999E+00
   8.823378252470000E+00   8.971667820340000E+00   9.122449591680001E+00
   9.275765451290001E+00   9.431657987880000E+00   9.590170505960000E+00
   9.751347037780000E+00   9.915232355640001E+00   1.008187198430000E+01
   1.025131221360000E+01   1.042360011140000E+01   1.059878353650000E+01
   1.077691115220000E+01   1.095803243940000E+01   1.114219771080000E+01
   1.132945812460000E+01   1.151986569870000E+01   1.171347332550000E+01
   1.191033478600000E+01   1.211050476530000E+01   1.231403886740000E+01
   1.252099363080000E+01   1.273142654440000E+01   1.294539606300000E+01
   1.316296162400000E+01   1.338418366380000E+01   1.360912363420000E+01
   1.383784402010000E+01   1.407040835640000E+01   1.430688124580000E+01
   1.454732837660000E+01   1.479181654140000E+01   1.504041365500000E+01
   1.529318877390000E+01   1.555021211490000E+01   1.581155507510000E+01
   1.607729025150000E+01   1.634749146100000E+01   1.662223376130000E+01
   1.690159347150000E+01   1.718564819330000E+01   1.747447683260000E+01
   1.776815962140000E+01   1.806677814020000E+01   1.837041534040000E+01
   1.867915556780000E+01   1.899308458550000E+01   1.931228959790000E+01
   1.963685927520000E+01   1.996688377780000E+01   2.030245478120000E+01
   2.064366550170000E+01   2.099061072240000E+01   2.134338681900000E+01
   2.170209178730000E+01   2.206682526980000E+01   2.243768858370000E+01
   2.281478474900000E+01   2.319821851700000E+01   2.358809639960000E+01
   2.398452669870000E+01   2.438761953640000E+01   2.479748688550000E+01
   2.521424260070000E+01   2.563800245010000E+01   2.606888414760000E+01
   2.650700738520000E+01   2.695249386670000E+01   2.740546734120000E+01
   2.786605363750000E+01   2.833438069940000E+01   2.881057862050000E+01
   2.929477968130000E+01   2.978711838500000E+01   3.028773149570000E+01
   3.079675807570000E+01   3.131433952460000E+01   3.184061961830000E+01
   3.237574454910000E+01   3.291986296640000E+01   3.347312601750000E+01
   3.403568739020000E+01   3.460770335530000E+01   3.518933280960000E+01
   3.578073732070000E+01   3.638208117140000E+01   3.699353140560000E+01
   3.761525787440000E+01   3.824743328360000E+01   3.889023324160000E+01
   3.954383630810000E+01   4.020842404370000E+01   4.088418106030000E+01
   4.157129507260000E+01   4.226995695010000E+01   4.298036076980000E+01
   4.370270387090000E+01   4.443718690870000E+01   4.518401391120000E+01
   4.594339233500000E+01   4.671553312350000E+01   4.750065076520000E+01
   4.829896335330000E+01   4.911069264660000E+01   4.993606413050000E+01
   5.077530708030000E+01   5.162865462440000E+01   5.249634380930000E+01
   5.337861566530000E+01   5.427571527350000E+01   5.518789183420000E+01
   5.611539873550000E+01   5.705849362430000E+01   5.801743847730000E+01
   5.899249967440000E+01   5.998394807200000E+01   6.099205907900000E+01
   6.201711273270000E+01   6.305939377670000E+01   6.411919174030000E+01
   6.519680101860000E+01   6.629252095450001E+01   6.740665592169999E+01
   6.853951540920001E+01   6.969141410749999E+01   7.086267199590000E+01
   7.205361443130001E+01   7.326457223880000E+01   7.449588180329999E+01
   7.574788516320000E+01   7.702093010510001E+01   7.831537026100000E+01
   7.963156520570000E+01   8.096988055760001E+01   8.233068807940001E+01
   8.371436578200000E+01   8.512129802929999E+01   8.655187564470000E+01
   8.800649602020000E+01   8.948556322630000E+01   9.098948812450000E+01
   9.251868848140001E+01   9.407358908480001E+01   9.565462186140000E+01
   9.726222599720001E+01   9.889684805920000E+01   1.005589421200000E+02
   1.022489698820000E+02   1.039674008090000E+02   1.057147122550000E+02
   1.074913895930000E+02   1.092979263580000E+02   1.111348243770000E+02
   1.130025939110000E+02   1.149017537960000E+02   1.168328315910000E+02
   1.187963637160000E+02   1.207928956110000E+02   1.228229818810000E+02
   1.248871864510000E+02   1.269860827260000E+02   1.291202537440000E+02
   1.312902923460000E+02   1.334968013340000E+02   1.357403936400000E+02
   1.380216925000000E+02   1.403413316230000E+02   1.426999553670000E+02
   1.450982189210000E+02   1.475367884840000E+02   1.500163414530000E+02
   1.525375666090000E+02   1.551011643070000E+02   1.577078466760000E+02
   1.603583378100000E+02   1.630533739730000E+02   1.657937038040000E+02
   1.685800885240000E+02   1.714133021460000E+02   1.742941316930000E+02
   1.772233774120000E+02   1.802018530030000E+02   1.832303858380000E+02
   1.863098171970000E+02   1.894410024970000E+02   1.926248115320000E+02
   1.958621287130000E+02   1.991538533160000E+02   2.025008997300000E+02
   2.059041977130000E+02
    </PP_R>
    <PP_RAB>
   9.498770474530000E-07   9.658409949380000E-07   9.820732378000001E-07
   9.985782850980000E-07   1.015360721670000E-06   1.032425209420000E-06
   1.049776488590000E-06   1.067419379090000E-06   1.085358781840000E-06
   1.103599680110000E-06   1.122147140950000E-06   1.141006316540000E-06
   1.160182445670000E-06   1.179680855160000E-06   1.199506961360000E-06
   1.219666271660000E-06   1.240164385980000E-06   1.261006998380000E-06
   1.282199898620000E-06   1.303748973740000E-06   1.325660209730000E-06
   1.347939693190000E-06   1.370593613020000E-06   1.393628262100000E-06
   1.417050039110000E-06   1.440865450240000E-06   1.465081111040000E-06
   1.489703748240000E-06   1.514740201610000E-06   1.540197425890000E-06
   1.566082492680000E-06   1.592402592470000E-06   1.619165036550000E-06
   1.646377259100000E-06   1.674046819260000E-06   1.702181403180000E-06
   1.730788826220000E-06   1.759877035070000E-06   1.789454109960000E-06
   1.819528266940000E-06   1.850107860140000E-06   1.881201384090000E-06
   1.912817476070000E-06   1.944964918540000E-06   1.977652641550000E-06
   2.010889725240000E-06   2.044685402330000E-06   2.079049060740000E-06
   2.113990246140000E-06   2.149518664650000E-06   2.185644185500000E-06
   2.222376843790000E-06   2.259726843270000E-06   2.297704559180000E-06
   2.336320541130000E-06   2.375585516030000E-06   2.415510391080000E-06
   2.456106256760000E-06   2.497384389980000E-06   2.539356257130000E-06
   2.582033517360000E-06   2.625428025720000E-06   2.669551836530000E-06
   2.714417206680000E-06   2.760036599060000E-06   2.806422686020000E-06
   2.853588352880000E-06   2.901546701530000E-06   2.950311054030000E-06
   2.999894956340000E-06   3.050312182100000E-06   3.101576736420000E-06
   3.153702859770000E-06   3.206705031970000E-06   3.260597976190000E-06
   3.315396663030000E-06   3.371116314710000E-06   3.427772409270000E-06
   3.485380684870000E-06   3.543957144180000E-06   3.603518058820000E-06
   3.664079973870000E-06   3.725659712470000E-06   3.788274380500000E-06
   3.851941371340000E-06   3.916678370650000E-06   3.982503361370000E-06
   4.049434628620000E-06   4.117490764870000E-06   4.186690675020000E-06
   4.257053581730000E-06   4.328599030700000E-06   4.401346896120000E-06
   4.475317386200000E-06   4.550531048780000E-06   4.627008777010000E-06
   4.704771815220000E-06   4.783841764740000E-06   4.864240589950000E-06
   4.945990624390000E-06   5.029114576910000E-06   5.113635538040000E-06
   5.199576986360000E-06   5.286962795070000E-06   5.375817238540000E-06
   5.466164999150000E-06   5.558031174070000E-06   5.651441282280000E-06
   5.746421271630000E-06   5.842997526060000E-06   5.941196872920000E-06
   6.041046590460000E-06   6.142574415340000E-06   6.245808550390000E-06
   6.350777672410000E-06   6.457510940180000E-06   6.566038002520000E-06
   6.676389006520000E-06   6.788594605950000E-06   6.902685969750000E-06
   7.018694790710000E-06   7.136653294250000E-06   7.256594247360000E-06
   7.378550967760000E-06   7.502557333100000E-06   7.628647790380000E-06
   7.756857365550000E-06   7.887221673189999E-06   8.019776926459999E-06
   8.154559947109999E-06   8.291608175739999E-06   8.430959682170001E-06
   8.572653176059999E-06   8.716728017630000E-06   8.863224228580000E-06
   9.012182503250000E-06   9.163644219900001E-06   9.317651452200001E-06
   9.474246980930000E-06   9.633474305860000E-06   9.795377657810000E-06
   9.960002010980000E-06   1.012739309540000E-05   1.029759740970000E-05
   1.047066223400000E-05   1.064663564290000E-05   1.082556651900000E-05
   1.100750456650000E-05   1.119250032500000E-05   1.138060518330000E-05
   1.157187139400000E-05   1.176635208780000E-05   1.196410128850000E-05
   1.216517392750000E-05   1.236962585970000E-05   1.257751387870000E-05
   1.278889573240000E-05   1.300383013930000E-05   1.322237680490000E-05
   1.344459643800000E-05   1.367055076760000E-05   1.390030256040000E-05
   1.413391563770000E-05   1.437145489360000E-05   1.461298631260000E-05
   1.485857698850000E-05   1.510829514250000E-05   1.536221014220000E-05
   1.562039252130000E-05   1.588291399880000E-05   1.614984749900000E-05
   1.642126717170000E-05   1.669724841320000E-05   1.697786788650000E-05
   1.726320354350000E-05   1.755333464580000E-05   1.784834178720000E-05
   1.814830691610000E-05   1.845331335810000E-05   1.876344583910000E-05
   1.907879050910000E-05   1.939943496580000E-05   1.972546827910000E-05
   2.005698101600000E-05   2.039406526550000E-05   2.073681466430000E-05
   2.108532442270000E-05   2.143969135130000E-05   2.180001388750000E-05
   2.216639212330000E-05   2.253892783280000E-05   2.291772450050000E-05
   2.330288735020000E-05   2.369452337390000E-05   2.409274136210000E-05
   2.449765193330000E-05   2.490936756540000E-05   2.532800262640000E-05
   2.575367340660000E-05   2.618649815050000E-05   2.662659709010000E-05
   2.707409247790000E-05   2.752910862100000E-05   2.799177191570000E-05
   2.846221088260000E-05   2.894055620220000E-05   2.942694075130000E-05
   2.992149963980000E-05   3.042437024840000E-05   3.093569226660000E-05
   3.145560773160000E-05   3.198426106760000E-05   3.252179912630000E-05
   3.306837122720000E-05   3.362412919930000E-05   3.418922742360000E-05
   3.476382287530000E-05   3.534807516810000E-05   3.594214659790000E-05
   3.654620218840000E-05   3.716040973670000E-05   3.778493986000000E-05
   3.841996604300000E-05   3.906566468570000E-05   3.972221515320000E-05
   4.038979982470000E-05   4.106860414480000E-05   4.175881667460000E-05
   4.246062914410000E-05   4.317423650590000E-05   4.389983698880000E-05
   4.463763215320000E-05   4.538782694680000E-05   4.615062976200000E-05
   4.692625249330000E-05   4.771491059650000E-05   4.851682314830000E-05
   4.933221290740000E-05   5.016130637620000E-05   5.100433386380000E-05
   5.186152954990000E-05   5.273313154980000E-05   5.361938198090000E-05
   5.452052702960000E-05   5.543681701970000E-05   5.636850648210000E-05
   5.731585422540000E-05   5.827912340790000E-05   5.925858161050000E-05
   6.025450091130000E-05   6.126715796090000E-05   6.229683405940000E-05
   6.334381523459999E-05   6.440839232140000E-05   6.549086104240000E-05
   6.659152209030000E-05   6.771068121150000E-05   6.884864929059999E-05
   7.000574243719999E-05   7.118228207360000E-05   7.237859502380000E-05
   7.359501360460001E-05   7.483187571800000E-05   7.608952494480000E-05
   7.736831063990000E-05   7.866858803000000E-05   7.999071831140000E-05
   8.133506875120000E-05   8.270201278859999E-05   8.409193013920000E-05