<UPF version="2.0.1">
  <PP_INFO>
    Generated by new atomic code, or converted to UPF format
    Author: 
    Generation date: 
    Pseudopotential type: US
    Element: Sb
    Functional:  SLA  PZ   NOGX NOGC
    Suggested minimum cutoff for wavefunctions:   0. Ry
    Suggested minimum cutoff for charge density:   0. Ry
    The Pseudo was generated with a Non-Relativistic Calculation
    L component and cutoff radius for Local Potential:  0   0.0000
    Valence configuration: 
    nl pn  l   occ       Rcut    Rcut US       E pseu
    4D  3  2 10.00      0.000      0.000     0.000000
    5S  1  0  2.00      0.000      0.000     0.000000
    5P  2  1  2.00      0.000      0.000     0.000000
    Generation configuration: not available.
  </PP_INFO>
    <!-- END OF HUMAN READABLE SECTION -->
  <PP_HEADER generated="Generated by new atomic code, or converted to UPF format" author="" date="" comment="" element="Sb" pseudo_type="US" relativistic="no" is_ultrasoft="true" is_paw="false" is_coulomb="false" has_so="false" has_wfc="false" has_gipaw="false" paw_as_gipaw="false" core_correction="true" functional=" SLA  PZ   NOGX NOGC" z_valence="15.000000000000000" total_psenergy="-183.59044874300000" wfc_cutoff="0.0000000000000000" rho_cutoff="0.0000000000000000" l_max="2" l_max_rho="0" l_local="0" mesh_size="891" number_of_wfc="3" number_of_proj="6"/>
  <PP_MESH>
    <PP_R>
   0.000000000000000E+00   1.121970811030000E-09   2.272344448370000E-09
   3.451839932990000E-09   4.661194487950000E-09   5.901163999230000E-09
   7.172523488140000E-09   8.476067595739999E-09   9.812611079530000E-09
   1.118298932270000E-08   1.258805885630000E-08   1.402869789440000E-08
   1.550580688340000E-08   1.702030906460000E-08   1.857315105090000E-08
   2.016530341930000E-08   2.179776131680000E-08   2.347154508280000E-08
   2.518770088650000E-08   2.694730138120000E-08   2.875144637450000E-08
   3.060126351570000E-08   3.249790900080000E-08   3.444256829500000E-08
   3.643645687360000E-08   3.848082098190000E-08   4.057693841400000E-08
   4.272611931150000E-08   4.492970698240000E-08   4.718907874080000E-08
   4.950564676760000E-08   5.188085899320000E-08   5.431620000260000E-08
   5.681319196310000E-08   5.937339557600000E-08   6.199841105199999E-08
   6.468987911120000E-08   6.744948200860000E-08   7.027894458600000E-08
   7.318003534950000E-08   7.615456757540000E-08   7.920440044310000E-08
   8.233144019740000E-08   8.553764133999999E-08   8.882500785090000E-08
   9.219559444130001E-08   9.565150783740000E-08   9.919490809770000E-08
   1.028280099630000E-07   1.065530842390000E-07   1.103724592200000E-07
   1.142885221390000E-07   1.183037206620000E-07   1.224205644200000E-07
   1.266416265740000E-07   1.309695454260000E-07   1.354070260640000E-07
   1.399568420600000E-07   1.446218371960000E-07   1.494049272460000E-07
   1.543091017970000E-07   1.593374261180000E-07   1.644930430750000E-07
   1.697791750970000E-07   1.751991261880000E-07   1.807562839950000E-07
   1.864541219210000E-07   1.922962013000000E-07   1.982861736240000E-07
   2.044277828180000E-07   2.107248675900000E-07   2.171813638210000E-07
   2.238013070330000E-07   2.305888349050000E-07   2.375481898640000E-07
   2.446837217310000E-07   2.519998904490000E-07   2.595012688580000E-07
   2.671925455670000E-07   2.750785278720000E-07   2.831641447700000E-07
   2.914544500340000E-07   2.999546253750000E-07   3.086699836790000E-07
   3.176059723290000E-07   3.267681766090000E-07   3.361623231950000E-07
   3.457942837330000E-07   3.556700785140000E-07   3.657958802290000E-07
   3.761780178350000E-07   3.868229805070000E-07   3.977374216910000E-07
   4.089281632690000E-07   4.204021998190000E-07   4.321667029870000E-07
   4.442290259710000E-07   4.565967081150000E-07   4.692774796230000E-07
   4.822792663900000E-07   4.956101949560000E-07   5.092785975860000E-07
   5.232930174750000E-07   5.376622140930000E-07   5.523951686550000E-07
   5.675010897380000E-07   5.829894190330000E-07   5.988698372520000E-07
   6.151522701710000E-07   6.318468948430000E-07   6.489641459500000E-07
   6.665147223310000E-07   6.845095936700000E-07   7.029600073439999E-07
   7.218774954650000E-07   7.412738820780000E-07   7.611612905550000E-07
   7.815521511750000E-07   8.024592088890000E-07   8.238955312890000E-07
   8.458745167750000E-07   8.684099029260000E-07   8.915157750950000E-07
   9.152065752020000E-07   9.394971107690000E-07   9.644025641710001E-07
   9.899385021280000E-07   1.016120885430000E-06   1.042966078930000E-06
   1.070490861730000E-06   1.098712437720000E-06   1.127648446320000E-06
   1.157316973460000E-06   1.187736562930000E-06   1.218926227990000E-06
   1.250905463170000E-06   1.283694256550000E-06   1.317313102180000E-06
   1.351783012940000E-06   1.387125533650000E-06   1.423362754520000E-06
   1.460517325020000E-06   1.498612467940000E-06   1.537671993990000E-06
   1.577720316660000E-06   1.618782467440000E-06   1.660884111520000E-06
   1.704051563790000E-06   1.748311805320000E-06   1.793692500190000E-06
   1.840222012830000E-06   1.887929425690000E-06   1.936844557450000E-06
   1.986997981670000E-06   2.038421045870000E-06   2.091145891140000E-06
   2.145205472220000E-06   2.200633578110000E-06   2.257464853180000E-06
   2.315734818830000E-06   2.375479895680000E-06   2.436737426350000E-06
   2.499545698800000E-06   2.563943970230000E-06   2.629972491670000E-06
   2.697672533080000E-06   2.767086409200000E-06   2.838257505960000E-06
   2.911230307620000E-06   2.986050424540000E-06   3.062764621740000E-06
   3.141420848090000E-06   3.222068266290000E-06   3.304757283600000E-06
   3.389539583350000E-06   3.476468157230000E-06   3.565597338440000E-06
   3.656982835620000E-06   3.750681767670000E-06   3.846752699480000E-06
   3.945255678500000E-06   4.046252272320000E-06   4.149805607070000E-06
   4.255980406980000E-06   4.364843034740000E-06   4.476461533050000E-06
   4.590905667090000E-06   4.708246968180000E-06   4.828558778450000E-06
   4.951916296700000E-06   5.078396625390000E-06   5.208078818840000E-06
   5.341043932650000E-06   5.477375074340000E-06   5.617157455320000E-06
   5.760478444120000E-06   5.907427621020000E-06   6.058096834040000E-06
   6.212580256360000E-06   6.370974445130000E-06   6.533378401870000E-06
   6.699893634360000E-06   6.870624220020000E-06   7.045676871040000E-06
   7.225161001020000E-06   7.409188793380000E-06   7.597875271490000E-06
   7.791338370520001E-06   7.989699011230000E-06   8.193081175469999E-06
   8.401611983700000E-06   8.615421774479999E-06   8.834644185880000E-06
   9.059416239050000E-06   9.289878423830000E-06   9.526174786600000E-06
   9.768453020269999E-06   1.001686455660000E-05   1.027156466100000E-05
   1.053271252910000E-05   1.080047138710000E-05   1.107500859280000E-05
   1.135649574090000E-05   1.164510877010000E-05   1.194102807300000E-05
   1.224443860870000E-05   1.255553001860000E-05   1.287449674510000E-05
   1.320153815270000E-05   1.353685865290000E-05   1.388066783210000E-05
   1.423318058200000E-05   1.459461723470000E-05   1.496520369980000E-05
   1.534517160600000E-05   1.573475844540000E-05   1.613420772270000E-05
   1.654376910660000E-05   1.696369858630000E-05   1.739425863130000E-05
   1.783571835580000E-05   1.828835368650000E-05   1.875244753500000E-05
   1.922828997530000E-05   1.971617842430000E-05   2.021641782820000E-05
   2.072932085300000E-05   2.125520807950000E-05   2.179440820470000E-05
   2.234725824590000E-05   2.291410375260000E-05   2.349529902160000E-05
   2.409120731900000E-05   2.470220110660000E-05   2.532866227570000E-05
   2.597098238470000E-05   2.662956290470000E-05   2.730481547000000E-05
   2.799716213530000E-05   2.870703563990000E-05   2.943487967790000E-05
   3.018114917530000E-05   3.094631057510000E-05   3.173084212790000E-05
   3.253523419150000E-05   3.335998953720000E-05   3.420562366380000E-05
   3.507266512030000E-05   3.596165583570000E-05   3.687315145830000E-05
   3.780772170240000E-05   3.876595070480000E-05   3.974843739000000E-05
   4.075579584400000E-05   4.178865569860000E-05   4.284766252500000E-05
   4.393347823680000E-05   4.504678150430000E-05   4.618826817810000E-05
   4.735865172470000E-05   4.855866367180000E-05   4.978905406590000E-05
   5.105059194120000E-05   5.234406579990000E-05   5.367028410510000E-05
   5.503007578660000E-05   5.642429075850000E-05   5.785380045030000E-05
   5.931949835230000E-05   6.082230057340000E-05   6.236314641380000E-05
   6.394299895229999E-05   6.556284564830000E-05   6.722369895860000E-05
   6.892659697070000E-05   7.067260405120000E-05   7.246281151130000E-05
   7.429833828910001E-05   7.618033164840001E-05   7.810996789650000E-05
   8.008845311880001E-05   8.211702393290000E-05   8.419694826170000E-05
   8.632952612550000E-05   8.851609045499999E-05   9.075800792400000E-05
   9.305667980400000E-05   9.541354283970001E-05   9.783007014710001E-05
   1.003077721350000E-04   1.028481974470000E-04   1.054529339310000E-04
   1.081236096340000E-04   1.108618938150000E-04   1.136694979890000E-04
   1.165481770010000E-04   1.194997301200000E-04   1.225260021610000E-04
   1.256288846440000E-04   1.288103169710000E-04   1.320722876410000E-04
   1.354168354910000E-04   1.388460509730000E-04   1.423620774590000E-04
   1.459671125790000E-04   1.496634095970000E-04   1.534532788200000E-04
   1.573390890390000E-04   1.613232690120000E-04   1.654083089810000E-04
   1.695967622300000E-04   1.738912466770000E-04   1.782944465150000E-04
   1.828091138890000E-04   1.874380706110000E-04   1.921842099300000E-04
   1.970504983380000E-04   2.020399774230000E-04   2.071557657730000E-04
   2.124010609220000E-04   2.177791413500000E-04   2.232933685310000E-04
   2.289471890390000E-04   2.347441366940000E-04   2.406878347780000E-04
   2.467819982950000E-04   2.530304362960000E-04   2.594370542580000E-04
   2.660058565250000E-04   2.727409488140000E-04   2.796465407760000E-04
   2.867269486310000E-04   2.939865978640000E-04   3.014300259920000E-04
   3.090618854010000E-04   3.168869462500000E-04   3.249100994580000E-04
   3.331363597560000E-04   3.415708688250000E-04   3.502188985080000E-04
   3.590858541040000E-04   3.681772777510000E-04   3.774988518820000E-04
   3.870564027860000E-04   3.968559042430000E-04   4.069034812610000E-04
   4.172054139010000E-04   4.277681412090000E-04   4.385982652310000E-04
   4.497025551470000E-04   4.610879515020000E-04   4.727615705370000E-04
   4.847307086460000E-04   4.970028469280000E-04   5.095856558700000E-04
   5.224870001360000E-04   5.357149434880000E-04   5.492777538200001E-04
   5.631839083300000E-04   5.774420988180000E-04   5.920612371160000E-04
   6.070504606620000E-04   6.224191382090000E-04   6.381768756800000E-04
   6.543335221750000E-04   6.708991761229999E-04   6.878841915970000E-04
   7.052991847850000E-04   7.231550406240000E-04   7.414629196060000E-04
   7.602342647510000E-04   7.794808087610000E-04   7.992145813520000E-04
   8.194479167750000E-04   8.401934615220000E-04   8.614641822350000E-04
   8.832733738070000E-04   9.056346676920000E-04   9.285620404260000E-04
   9.520698223650000E-04   9.761727066360000E-04   1.000885758330000E-03
   1.026224423900000E-03   1.052204540850000E-03   1.078842347590000E-03
   1.106154493620000E-03   1.134158049910000E-03   1.162870519610000E-03
   1.192309848940000E-03   1.222494438440000E-03   1.253443154460000E-03
   1.285175340950000E-03   1.317710831580000E-03   1.351069962060000E-03
   1.385273582960000E-03   1.420343072640000E-03   1.456300350680000E-03
   1.493167891550000E-03   1.530968738660000E-03   1.569726518770000E-03
   1.609465456750000E-03   1.650210390740000E-03   1.691986787650000E-03
   1.734820759070000E-03   1.778739077650000E-03   1.823769193750000E-03
   1.869939252670000E-03   1.917278112190000E-03   1.965815360650000E-03
   2.015581335410000E-03   2.066607141810000E-03   2.118924672660000E-03
   2.172566628100000E-03   2.227566536110000E-03   2.283958773410000E-03
   2.341778587010000E-03   2.401062116150000E-03   2.461846414980000E-03
   2.524169475650000E-03   2.588070252130000E-03   2.653588684460000E-03
   2.720765723800000E-03   2.789643357980000E-03   2.860264637780000E-03
   2.932673703790000E-03   3.006915814030000E-03   3.083037372240000E-03
   3.161085956870000E-03   3.241110350830000E-03   3.323160571960000E-03
   3.407287904330000E-03   3.493544930260000E-03   3.581985563200000E-03
   3.672665081420000E-03   3.765640162580000E-03   3.860968919110000E-03
   3.958710934610000E-03   4.058927301010000E-03   4.161680656810000E-03
   4.267035226190000E-03   4.375056859200000E-03   4.485813072860000E-03
   4.599373093420000E-03   4.715807899590000E-03   4.835190266910000E-03
   4.957594813240000E-03   5.083098045420000E-03   5.211778407050000E-03
   5.343716327540000E-03   5.478994272390000E-03   5.617696794720000E-03
   5.759910588120000E-03   5.905724540840000E-03   6.055229791350000E-03
   6.208519785290000E-03   6.365690333900000E-03   6.526839673900000E-03
   6.692068528850000E-03   6.861480172190000E-03   7.035180491700000E-03
   7.213278055730000E-03   7.395884181050000E-03   7.583113002450000E-03
   7.775081544030000E-03   7.971909792379999E-03   8.173720771550000E-03
   8.380640619990000E-03   8.592798669319999E-03   8.810327525249999E-03
   9.033363150379999E-03   9.262044949250000E-03   9.496515855410000E-03
   9.736922420820001E-03   9.983414907410001E-03   1.023614738100000E-02
   1.049527780760000E-02   1.076096815220000E-02   1.103338448000000E-02
   1.131269705980000E-02   1.159908047130000E-02   1.189271371340000E-02
   1.219378031640000E-02   1.250246845670000E-02   1.281897107450000E-02
   1.314348599420000E-02   1.347621604830000E-02   1.381736920370000E-02
   1.416715869240000E-02   1.452580314420000E-02   1.489352672340000E-02
   1.527055926950000E-02   1.565713643980000E-02   1.605349985780000E-02
   1.645989726350000E-02   1.687658266850000E-02   1.730381651480000E-02
   1.774186583740000E-02   1.819100443140000E-02   1.865151302300000E-02
   1.912367944510000E-02   1.960779881710000E-02   2.010417372930000E-02
   2.061311443230000E-02   2.113493903050000E-02   2.166997368130000E-02
   2.221855279880000E-02   2.278101926270000E-02   2.335772463300000E-02
   2.394902936920000E-02   2.455530305610000E-02   2.517692463450000E-02
   2.581428263800000E-02   2.646777543620000E-02   2.713781148340000E-02
   2.782480957380000E-02   2.852919910370000E-02   2.925142033940000E-02
   2.999192469280000E-02   3.075117500320000E-02   3.152964582660000E-02
   3.232782373280000E-02   3.314620760880000E-02   3.398530897130000E-02
   3.484565228600000E-02   3.572777529530000E-02   3.663222935500000E-02
   3.755957977810000E-02   3.851040618900000E-02   3.948530288510000E-02
   4.048487920860000E-02   4.150975992710000E-02   4.256058562460000E-02
   4.363801310120000E-02   4.474271578430000E-02   4.587538414900000E-02
   4.703672614980000E-02   4.822746766330000E-02   4.944835294170000E-02
   5.070014507820000E-02   5.198362648340000E-02   5.329959937510000E-02
   5.464888627910000E-02   5.603233054380000E-02   5.745079686680000E-02
   5.890517183560000E-02   6.039636448210000E-02   6.192530685020000E-02
   6.349295457860001E-02   6.510028749820000E-02   6.674831024430000E-02
   6.843805288490000E-02   7.017057156419999E-02   7.194694916250000E-02
   7.376829597390000E-02   7.563575039940000E-02   7.755047965870000E-02
   7.951368051990000E-02   8.152658004759999E-02   8.359043636940000E-02
   8.570653946280000E-02   8.787621196100000E-02   9.010080997990000E-02
   9.238172396590000E-02   9.472037956430000E-02   9.711823851110001E-02
   9.957679954610001E-02   1.020975993500000E-01   1.046822135050000E-01
   1.073322574780000E-01   1.100493876350000E-01   1.128353022680000E-01
   1.156917426660000E-01   1.186204941980000E-01   1.216233874270000E-01
   1.247022992600000E-01   1.278591541180000E-01   1.310959251360000E-01
   1.344146354030000E-01   1.378173592210000E-01   1.413062234020000E-01
   1.448834086000000E-01   1.485511506730000E-01   1.523117420780000E-01
   1.561675333080000E-01   1.601209343580000E-01   1.641744162310000E-01
   1.683305124870000E-01   1.725918208210000E-01   1.769610046880000E-01
   1.814407949720000E-01   1.860339916870000E-01   1.907434657300000E-01
   1.955721606760000E-01   2.005230946170000E-01   2.055993620470000E-01
   2.108041357990000E-01   2.161406690260000E-01   2.216122972340000E-01
   2.272224403700000E-01   2.329746049560000E-01   2.388723862820000E-01
   2.449194706520000E-01   2.511196376930000E-01   2.574767627090000E-01
   2.639948191110000E-01   2.706778808970000E-01   2.775301251970000E-01
   2.845558348870000E-01   2.917594012660000E-01   2.991453267950000E-01
   3.067182279190000E-01   3.144828379480000E-01   3.224440100150000E-01
   3.306067201130000E-01   3.389760702010000E-01   3.475572913950000E-01
   3.563557472380000E-01   3.653769370500000E-01   3.746264993710000E-01
   3.841102154760000E-01   3.938340129970000E-01   4.038039696250000E-01
   4.140263169060000E-01   4.245074441410000E-01   4.352539023750000E-01
   4.462724084940000E-01   4.575698494240000E-01   4.691532864320000E-01
   4.810299595450000E-01   4.932072920680000E-01   5.056928952330000E-01
   5.184945729460000E-01   5.316203266730000E-01   5.450783604380000E-01
   5.588770859500000E-01   5.730251278610000E-01   5.875313291580000E-01
   6.024047566900000E-01   6.176547068320000E-01   6.332907113000000E-01
   6.493225431050000E-01   6.657602226650000E-01   6.826140240640000E-01
   6.998944814770000E-01   7.176123957520000E-01   7.357788411620000E-01
   7.544051723280000E-01   7.735030313110000E-01   7.930843548970000E-01
   8.131613820490000E-01   8.337466615630000E-01   8.548530599100000E-01
   8.764937692740000E-01   8.986823158040000E-01   9.214325680640000E-01
   9.447587457010000E-01   9.686754283370000E-01   9.931975646770000E-01
   1.018340481850000E+00   1.044119895010000E+00   1.070551917110000E+00
   1.097653069050000E+00   1.125440289900000E+00   1.153930947610000E+00
   1.183142849750000E+00   1.213094254710000E+00   1.243803883090000E+00
   1.275290929430000E+00   1.307575074130000E+00   1.340676495850000E+00
   1.374615884050000E+00   1.409414451950000E+00   1.445093949790000E+00
   1.481676678420000E+00   1.519185503230000E+00   1.557643868470000E+00
   1.597075811860000E+00   1.637505979640000E+00   1.678959642000000E+00
   1.721462708810000E+00   1.765041745890000E+00   1.809723991540000E+00
   1.855537373620000E+00   1.902510526990000E+00   1.950672811400000E+00
   2.000054329850000E+00   2.050685947390000E+00   2.102599310430000E+00
   2.155826866510000E+00   2.210401884580000E+00   2.266358475820000E+00
   2.323731614910000E+00   2.382557161930000E+00   2.442871884760000E+00
   2.504713482070000E+00   2.568120606870000E+00   2.633132890680000E+00
   2.699790968280000E+00   2.768136503160000E+00   2.838212213490000E+00
   2.910061898870000E+00   2.983730467690000E+00   3.059263965220000E+00
   3.136709602330000E+00   3.216115785090000E+00   3.297532144930000E+00
   3.381009569740000E+00   3.466600235610000E+00   3.554357639510000E+00
   3.644336632660000E+00   3.736593454870000E+00   3.831185769650000E+00
   3.928172700280000E+00   4.027614866750000E+00   4.129574423650000E+00
   4.234115099030000E+00   4.341302234190000E+00   4.451202824610000E+00
   4.563885561710000E+00   4.679420875890000E+00   4.797880980470000E+00
   4.919339916870000E+00   5.043873600890000E+00   5.171559870130000E+00
   5.302478532660000E+00   5.436711416920000E+00   5.574342422820000E+00
   5.715457574220000E+00   5.860145072680000E+00   6.008495352610000E+00
   6.160601137750000E+00   6.316557499180000E+00   6.476461914690000E+00
   6.640414329760000E+00   6.808517219970000E+00   6.980875655110000E+00
   7.157597364800000E+00   7.338792805880000E+00   7.524575231390000E+00
   7.715060761390000E+00   7.910368455540000E+00   8.110620387499999E+00
   8.315941721260000E+00   8.526460789330001E+00   8.742309172980001E+00
   8.963621784480001E+00   9.190536951409999E+00   9.423196503140000E+00
   9.661745859470001E+00   9.906334121500000E+00   1.015711416490000E+01
   1.041424273520000E+01   1.067788054640000E+01   1.094819238050000E+01
   1.122534719120000E+01   1.150951820940000E+01   1.180088305120000E+01
   1.209962382910000E+01   1.240592726570000E+01   1.271998481080000E+01
   1.304199276050000E+01   1.337215238020000E+01   1.371067003050000E+01
   1.405775729590000E+01   1.441363111730000E+01   1.477851392730000E+01
   1.515263378970000E+01   1.553622454150000E+01   1.592952593940000E+01
   1.633278380950000E+01   1.674625020130000E+01   1.717018354460000E+01
   1.760484881160000E+01   1.805051768220000E+01   1.850746871390000E+01
   1.897598751620000E+01   1.945636692830000E+01   1.994890720320000E+01
   2.045391619450000E+01   2.097170954930000E+01   2.150261090530000E+01
   2.204695209300000E+01   2.260507334360000E+01   2.317732350090000E+01
   2.376406023980000E+01   2.436565029010000E+01   2.498246966500000E+01
   2.561490389670000E+01   2.626334827710000E+01   2.692820810530000E+01
   2.760989894010000E+01   2.830884686050000E+01   2.902548873180000E+01
   2.976027247850000E+01   3.051365736430000E+01   3.128611427920000E+01
   3.207812603400000E+01   3.289018766190000E+01   3.372280672780000E+01
   3.457650364560000E+01   3.545181200380000E+01   3.634927889860000E+01
   3.726946527610000E+01   3.821294628250000E+01   3.918031162440000E+01
   4.017216593650000E+01   4.118912916000000E+01   4.223183693010000E+01
   4.330094097310000E+01   4.439710951380000E+01   4.552102769320000E+01
   4.667339799670000E+01   4.785494069340000E+01   4.906639428590000E+01
   5.030851597200000E+01   5.158208211840000E+01   5.288788874530000E+01
   5.422675202420000E+01   5.559950878850000E+01   5.700701705570000E+01
   5.845015656430000E+01   5.992982932360000E+01   6.144696017700000E+01
   6.300249738090000E+01   6.459741319650000E+01   6.623270449830000E+01
   6.790939339649999E+01   6.962852787609999E+01   7.139118245240000E+01
   7.319845884170000E+01   7.505148665060000E+01   7.695142408180000E+01
   7.889945865810000E+01   8.089680796440000E+01   8.294472040920000E+01
   8.504447600440000E+01   8.719738716550000E+01   8.940479953210000E+01
   9.166809280890000E+01   9.398868162770000E+01   9.636801643210001E+01
   9.880758438389999E+01   1.013089102920000E+02   1.038735575680000E+02
   1.065031291980000E+02   1.091992687510000E+02   1.119636614020000E+02
   1.147980349860000E+02   1.177041610780000E+02   1.206838561030000E+02
   1.237389824670000E+02   1.268714497230000E+02   1.300832157650000E+02
   1.333762880510000E+02   1.367527248600000E+02   1.402146365730000E+02
   1.437641869980000E+02   1.474035947200000E+02   1.511351344870000E+02
   1.549611386330000E+02   1.588839985360000E+02   1.629061661090000E+02
   1.670301553390000E+02   1.712585438540000E+02   1.755939745340000E+02
   1.800391571640000E+02   1.845968701270000E+02   1.892699621440000E+02
   1.940613540490000E+02   1.989740406170000E+02   2.040110924370000E+02
    </PP_R>
    <PP_RAB>
   1.108004611270000E-09   1.136053881540000E-09   1.164813222470000E-09
   1.194300609590000E-09   1.224534473460000E-09   1.255533711250000E-09
   1.287317698470000E-09   1.319906301160000E-09   1.353319888250000E-09
   1.387579344330000E-09   1.422706082670000E-09   1.458722058630000E-09
   1.495649783350000E-09   1.533512337880000E-09   1.572333387540000E-09
   1.612137196750000E-09   1.652948644190000E-09   1.694793238330000E-09
   1.737697133430000E-09   1.781687145790000E-09   1.826790770630000E-09
   1.873036199160000E-09   1.920452336290000E-09   1.969068818640000E-09
   2.018916033110000E-09   2.070025135810000E-09   2.122428071610000E-09
   2.176157594050000E-09   2.231247285830000E-09   2.287731579790000E-09
   2.345645780460000E-09   2.405026086100000E-09   2.465909611330000E-09
   2.528334410340000E-09   2.592339500670000E-09   2.657964887570000E-09
   2.725251589040000E-09   2.794241661480000E-09   2.864978225910000E-09
   2.937505495000000E-09   3.011868800650000E-09   3.088114622340000E-09
   3.166290616200000E-09   3.246445644770000E-09   3.328629807540000E-09
   3.412894472300000E-09   3.499292307200000E-09   3.587877313710000E-09
   3.678704860330000E-09   3.771831717240000E-09   3.867316091760000E-09
   3.965217664730000E-09   4.065597627820000E-09   4.168518721770000E-09
   4.274045275620000E-09   4.382243246900000E-09   4.493180262870000E-09
   4.606925662760000E-09   4.723550541160000E-09   4.843127792410000E-09
   4.965732156190000E-09   5.091440264220000E-09   5.220330688150000E-09
   5.352483988700000E-09   5.487982765980000E-09   5.626911711130000E-09
   5.769357659280000E-09   5.915409643770000E-09   6.065158951860000E-09
   6.218699181720000E-09   6.376126301010000E-09   6.537538706800000E-09
   6.703037287100000E-09   6.872725483900000E-09   7.046709357860000E-09
   7.225097654550000E-09   7.408001872480000E-09   7.595536332719999E-09
   7.787818250440000E-09   7.984967808070000E-09   8.187108230510000E-09
   8.394365862109999E-09   8.606870245640000E-09   8.824754203250000E-09
   9.048153919499999E-09   9.277209026500000E-09   9.512062691130000E-09
   9.752861704590001E-09   9.999756574099999E-09   1.025290161700000E-08
   1.051245505720000E-08   1.077857912390000E-08   1.105144015350000E-08
   1.133120869300000E-08   1.161805960670000E-08   1.191217218590000E-08
   1.221373026050000E-08   1.252292231410000E-08   1.283994160180000E-08
   1.316498627100000E-08   1.349825948520000E-08   1.383996955090000E-08
   1.419033004810000E-08   1.454955996360000E-08   1.491788382760000E-08
   1.529553185470000E-08   1.568274008710000E-08   1.607975054260000E-08
   1.648681136550000E-08   1.690417698230000E-08   1.733210826000000E-08
   1.777087266950000E-08   1.822074445300000E-08   1.868200479490000E-08
   1.915494199790000E-08   1.963985166320000E-08   2.013703687510000E-08
   2.064680839060000E-08   2.116948483350000E-08   2.170539289350000E-08
   2.225486753060000E-08   2.281825218440000E-08   2.339589898860000E-08
   2.398816899130000E-08   2.459543238050000E-08   2.521806871550000E-08
   2.585646716450000E-08   2.651102674710000E-08   2.718215658440000E-08
   2.787027615440000E-08   2.857581555430000E-08   2.929921576920000E-08
   3.004092894770000E-08   3.080141868460000E-08   3.158116031100000E-08
   3.238064119050000E-08   3.320036102490000E-08   3.404083216570000E-08
   3.490257993480000E-08   3.578614295240000E-08   3.669207347440000E-08
   3.762093773670000E-08   3.857331630970000E-08   3.954980446110000E-08
   4.055101252780000E-08   4.157756629730000E-08   4.263010739920000E-08
   4.370929370600000E-08   4.481579974420000E-08   4.595031711610000E-08
   4.711355493210000E-08   4.830624025350000E-08   4.952911854760000E-08
   5.078295415310000E-08   5.206853075810000E-08   5.338665188970000E-08
   5.473814141670000E-08   5.612384406400000E-08   5.754462594070000E-08
   5.900137508200000E-08   6.049500200329999E-08   6.202644027010000E-08
   6.359664708130000E-08   6.520660386710000E-08   6.685731690289999E-08
   6.854981793830001E-08   7.028516484130000E-08   7.206444226040000E-08
   7.388876230170000E-08   7.575926522480000E-08   7.767712015480000E-08
   7.964352581350000E-08   8.165971126839999E-08   8.372693670120000E-08
   8.584649419490000E-08   8.801970854210000E-08   9.024793807229999E-08
   9.253257550170000E-08   9.487504880300000E-08   9.727682209820000E-08
   9.973939657380000E-08   1.022643114190000E-07   1.048531447880000E-07
   1.075075147860000E-07   1.102290804800000E-07   1.130195429370000E-07
   1.158806462890000E-07   1.188141788160000E-07   1.218219740730000E-07
   1.249059120290000E-07   1.280679202460000E-07   1.313099750820000E-07
   1.346341029280000E-07   1.380423814700000E-07   1.415369409940000E-07
   1.451199657140000E-07   1.487936951370000E-07   1.525604254620000E-07
   1.564225110200000E-07   1.603823657390000E-07   1.644424646580000E-07
   1.686053454700000E-07   1.728736101120000E-07   1.772499263870000E-07
   1.817370296370000E-07   1.863377244460000E-07   1.910548863980000E-07
   1.958914638740000E-07   2.008504798920000E-07   2.059350339980000E-07
   2.111483042040000E-07   2.164935489730000E-07   2.219741092580000E-07
   2.275934105870000E-07   2.333549652070000E-07   2.392623742760000E-07
   2.453193301180000E-07   2.515296185270000E-07   2.578971211350000E-07
   2.644258178400000E-07   2.711197892880000E-07   2.779832194310000E-07
   2.850203981340000E-07   2.922357238650000E-07   2.996337064360000E-07
   3.072189698280000E-07   3.149962550760000E-07   3.229704232380000E-07
   3.311464584280000E-07   3.395294709350000E-07   3.481247004130000E-07
   3.569375191620000E-07   3.659734354790000E-07   3.752380971070000E-07
   3.847372947600000E-07   3.944769657470000E-07   4.044631976790000E-07
   4.147022322760000E-07   4.252004692680000E-07   4.359644703950000E-07
   4.470009635070000E-07   4.583168467730000E-07   4.699191929870000E-07
   4.818152539940000E-07   4.940124652200000E-07   5.065184503170000E-07
   5.193410259350000E-07   5.324882066000000E-07   5.459682097280000E-07
   5.597894607600000E-07   5.739605984270000E-07   5.884904801530000E-07
   6.033881875850000E-07   6.186630322770000E-07   6.343245615030000E-07
   6.503825642290000E-07   6.668470772290000E-07   6.837283913610000E-07
   7.010370579940000E-07   7.187838956090000E-07   7.369799965580000E-07
   7.556367339950000E-07   7.747657689880000E-07   7.943790578080000E-07
   8.144888593990000E-07   8.351077430399999E-07   8.562485962060001E-07
   8.779246326180000E-07   9.001494005040000E-07   9.229367910679999E-07
   9.463010471700000E-07   9.702567722319999E-07   9.948189393609999E-07
   1.020002900710000E-06   1.045824397080000E-06   1.072299567740000E-06
   1.099444960530000E-06   1.127277542220000E-06   1.155814709060000E-06
   1.185074297730000E-06   1.215074596410000E-06   1.245834356260000E-06