<UPF version="2.0.1">
  <PP_INFO>
    Generated by new atomic code, or converted to UPF format
    Author: 
    Generation date: 
    Pseudopotential type: US
    Element: Sc
    Functional: SLA  PZ   NOGX NOGC
    Suggested minimum cutoff for wavefunctions:   0. Ry
    Suggested minimum cutoff for charge density:   0. Ry
    The Pseudo was generated with a Non-Relativistic Calculation
    L component and cutoff radius for Local Potential:  0   0.0000
    Valence configuration: 
    nl pn  l   occ       Rcut    Rcut US       E pseu
    3S  1  0  2.00      0.000      0.000     0.000000
    3P  2  1  6.00      0.000      0.000     0.000000
    4S  1  0  2.00      0.000      0.000     0.000000
    3D  3  2  1.00      0.000      0.000     0.000000
    4P  2  1  0.00      0.000      0.000     0.000000
    Generation configuration: not available.
  </PP_INFO>
    <!-- END OF HUMAN READABLE SECTION -->
  <PP_HEADER generated="Generated by new atomic code, or converted to UPF format" author="" date="" comment="" element="Sc" pseudo_type="US" relativistic="no" is_ultrasoft="true" is_paw="false" is_coulomb="false" has_so="false" has_wfc="false" has_gipaw="false" paw_as_gipaw="false" core_correction="true" functional="SLA  PZ   NOGX NOGC" z_valence="11.000000000000000" total_psenergy="-93.931796944499993" wfc_cutoff="0.0000000000000000" rho_cutoff="0.0000000000000000" l_max="2" l_max_rho="0" l_local="0" mesh_size="849" number_of_wfc="5" number_of_proj="6"/>
  <PP_MESH>
    <PP_R>
   0.000000000000000E+00   2.017657575240000E-06   4.069804190850000E-06
   6.157029388850000E-06   8.279932788660000E-06   1.043912425930000E-05
   1.263522409480000E-05   1.486886319200000E-05   1.714068323240000E-05
   1.945133686570000E-05   2.180148789810000E-05   2.419181148250000E-05
   2.662299431260000E-05   2.909573482020000E-05   3.161074337580000E-05
   3.416874249260000E-05   3.677046703440000E-05   3.941666442630000E-05
   4.210809486940000E-05   4.484553155980000E-05   4.762976091010000E-05
   5.046158277530000E-05   5.334181068320000E-05   5.627127206750000E-05
   5.925080850580000E-05   6.228127596120000E-05   6.536354502840001E-05
   6.849850118370000E-05   7.168704503920000E-05   7.493009260200000E-05
   7.822857553680001E-05   8.158344143400000E-05   8.499565408150000E-05
   8.846619374219999E-05   9.199605743489999E-05   9.558625922100000E-05
   9.923783049610000E-05   1.029518202860000E-04   1.067292955480000E-04
   1.105713414780000E-04   1.144790618210000E-04   1.184535791890000E-04
   1.224960353850000E-04   1.266075917280000E-04   1.307894293890000E-04
   1.350427497280000E-04   1.393687746420000E-04   1.437687469150000E-04
   1.482439305730000E-04   1.527956112510000E-04   1.574250965570000E-04
   1.621337164530000E-04   1.669228236350000E-04   1.717937939200000E-04
   1.767480266450000E-04   1.817869450640000E-04   1.869119967600000E-04
   1.921246540630000E-04   1.974264144680000E-04   2.028188010680000E-04
   2.083033629900000E-04   2.138816758450000E-04   2.195553421730000E-04
   2.253259919080000E-04   2.311952828470000E-04   2.371649011230000E-04
   2.432365616920000E-04   2.494120088250000E-04   2.556930166090000E-04
   2.620813894540000E-04   2.685789626180000E-04   2.751876027270000E-04
   2.819092083150000E-04   2.887457103700000E-04   2.956990728870000E-04
   3.027712934310000E-04   3.099644037160000E-04   3.172804701820000E-04
   3.247215945940000E-04   3.322899146430000E-04   3.399876045610000E-04
   3.478168757450000E-04   3.557799773930000E-04   3.638791971500000E-04
   3.721168617660000E-04   3.804953377620000E-04   3.890170321120000E-04
   3.976843929340000E-04   4.064999101920000E-04   4.154661164150000E-04
   4.245855874210000E-04   4.338609430550000E-04   4.432948479500000E-04
   4.528900122830000E-04   4.626491925580000E-04   4.725751924010000E-04
   4.826708633580000E-04   4.929391057200000E-04   5.033828693550000E-04
   5.140051545540000E-04   5.248090128940000E-04   5.357975481140000E-04
   5.469739170080000E-04   5.583413303300000E-04   5.699030537190000E-04
   5.816624086330000E-04   5.936227733080000E-04   6.057875837250000E-04
   6.181603345980000E-04   6.307445803810000E-04   6.435439362820000E-04
   6.565620793090000E-04   6.698027493230000E-04   6.832697501120000E-04
   6.969669504850000E-04   7.108982853820000E-04   7.250677570070000E-04
   7.394794359740000E-04   7.541374624790000E-04   7.690460474910000E-04
   7.842094739570000E-04   7.996320980360000E-04   8.153183503500000E-04
   8.312727372550000E-04   8.474998421380000E-04   8.640043267330000E-04
   8.807909324570000E-04   8.978644817790000E-04   9.152298795990000E-04
   9.328921146580001E-04   9.508562609770000E-04   9.691274793050000E-04
   9.877110186120000E-04   1.006612217590000E-03   1.025836506180000E-03
   1.045389407160000E-03   1.065276537690000E-03   1.085503610960000E-03
   1.106076437820000E-03   1.127000928450000E-03   1.148283094040000E-03
   1.169929048540000E-03   1.191945010440000E-03   1.214337304470000E-03
   1.237112363520000E-03   1.260276730420000E-03   1.283837059840000E-03
   1.307800120210000E-03   1.332172795660000E-03   1.356962087980000E-03
   1.382175118650000E-03   1.407819130900000E-03   1.433901491750000E-03
   1.460429694150000E-03   1.487411359150000E-03   1.514854238060000E-03
   1.542766214680000E-03   1.571155307590000E-03   1.600029672430000E-03
   1.629397604230000E-03   1.659267539840000E-03   1.689648060310000E-03
   1.720547893380000E-03   1.751975915970000E-03   1.783941156750000E-03
   1.816452798710000E-03   1.849520181810000E-03   1.883152805680000E-03
   1.917360332310000E-03   1.952152588880000E-03   1.987539570510000E-03
   2.023531443200000E-03   2.060138546730000E-03   2.097371397610000E-03
   2.135240692110000E-03   2.173757309340000E-03   2.212932314390000E-03
   2.252776961490000E-03   2.293302697210000E-03   2.334521163830000E-03
   2.376444202610000E-03   2.419083857230000E-03   2.462452377240000E-03
   2.506562221570000E-03   2.551426062140000E-03   2.597056787440000E-03
   2.643467506310000E-03   2.690671551640000E-03   2.738682484260000E-03
   2.787514096760000E-03   2.837180417520000E-03   2.887695714730000E-03
   2.939074500440000E-03   2.991331534790000E-03   3.044481830210000E-03
   3.098540655750000E-03   3.153523541470000E-03   3.209446282890000E-03
   3.266324945520000E-03   3.324175869510000E-03   3.383015674310000E-03
   3.442861263460000E-03   3.503729829430000E-03   3.565638858580000E-03
   3.628606136190000E-03   3.692649751530000E-03   3.757788103100000E-03
   3.824039903880000E-03   3.891424186730000E-03   3.959960309850000E-03
   4.029667962350000E-03   4.100567169880000E-03   4.172678300420000E-03
   4.246022070090000E-03   4.320619549150000E-03   4.396492168000000E-03
   4.473661723390000E-03   4.552150384620000E-03   4.631980699980000E-03
   4.713175603160000E-03   4.795758419900000E-03   4.879752874640000E-03
   4.965183097360000E-03   5.052073630510000E-03   5.140449436050000E-03
   5.230335902660000E-03   5.321758852960000E-03   5.414744551010000E-03
   5.509319709790000E-03   5.605511498920000E-03   5.703347552450000E-03
   5.802855976760000E-03   5.904065358710000E-03   6.007004773800000E-03
   6.111703794530000E-03   6.218192498900000E-03   6.326501479050000E-03
   6.436661850050000E-03   6.548705258860000E-03   6.662663893380000E-03
   6.778570491700000E-03   6.896458351570000E-03   7.016361339880000E-03
   7.138313902430000E-03   7.262351073840000E-03   7.388508487580000E-03
   7.516822386250000E-03   7.647329631940000E-03   7.780067716860000E-03
   7.915074774080001E-03   8.052389588540000E-03   8.192051608100000E-03
   8.334100954980000E-03   8.478578437200001E-03   8.625525560340000E-03
   8.774984539460001E-03   8.926998311250000E-03   9.081610546320000E-03
   9.238865661770001E-03   9.398808833940000E-03   9.561486011430000E-03
   9.726943928230000E-03   9.895230117199999E-03   1.006639292370000E-02
   1.024048151950000E-02   1.041754591690000E-02   1.059763698310000E-02
   1.078080645470000E-02   1.096710695280000E-02   1.115659199780000E-02
   1.134931602530000E-02   1.154533440110000E-02   1.174470343740000E-02
   1.194748040920000E-02   1.215372357030000E-02   1.236349217040000E-02
   1.257684647200000E-02   1.279384776760000E-02   1.301455839750000E-02
   1.323904176760000E-02   1.346736236760000E-02   1.369958578960000E-02
   1.393577874690000E-02   1.417600909320000E-02   1.442034584200000E-02
   1.466885918650000E-02   1.492162051980000E-02   1.517870245540000E-02
   1.544017884780000E-02   1.570612481430000E-02   1.597661675590000E-02
   1.625173237970000E-02   1.653155072120000E-02   1.681615216670000E-02
   1.710561847670000E-02   1.740003280930000E-02   1.769947974400000E-02
   1.800404530620000E-02   1.831381699160000E-02   1.862888379160000E-02
   1.894933621890000E-02   1.927526633320000E-02   1.960676776790000E-02
   1.994393575700000E-02   2.028686716230000E-02   2.063566050140000E-02
   2.099041597580000E-02   2.135123550000000E-02   2.171822273040000E-02
   2.209148309530000E-02   2.247112382520000E-02   2.285725398350000E-02
   2.324998449810000E-02   2.364942819260000E-02   2.405569981970000E-02
   2.446891609320000E-02   2.488919572230000E-02   2.531665944500000E-02
   2.575143006350000E-02   2.619363247900000E-02   2.664339372760000E-02
   2.710084301710000E-02   2.756611176370000E-02   2.803933363030000E-02
   2.852064456420000E-02   2.901018283680000E-02   2.950808908290000E-02
   3.001450634150000E-02   3.052958009630000E-02   3.105345831820000E-02
   3.158629150710000E-02   3.212823273570000E-02   3.267943769330000E-02
   3.324006473040000E-02   3.381027490420000E-02   3.439023202520000E-02
   3.498010270380000E-02   3.558005639840000E-02   3.619026546410000E-02
   3.681090520210000E-02   3.744215391030000E-02   3.808419293420000E-02
   3.873720671920000E-02   3.940138286350000E-02   4.007691217200000E-02
   4.076398871130000E-02   4.146280986510000E-02   4.217357639120000E-02
   4.289649247920000E-02   4.363176580880000E-02   4.437960760980000E-02
   4.514023272270000E-02   4.591385966030000E-02   4.670071067080000E-02
   4.750101180110000E-02   4.831499296240000E-02   4.914288799560000E-02
   4.998493473900000E-02   5.084137509620000E-02   5.171245510620000E-02
   5.259842501320000E-02   5.349953933930000E-02   5.441605695720000E-02
   5.534824116470000E-02   5.629635976020000E-02   5.726068511990000E-02
   5.824149427580000E-02   5.923906899540000E-02   6.025369586260000E-02
   6.128566636010000E-02   6.233527695300000E-02   6.340282917410001E-02
   6.448862971060000E-02   6.559299049179999E-02   6.671622877940001E-02
   6.785866725790000E-02   6.902063412780000E-02   7.020246319960000E-02
   7.140449399010000E-02   7.262707181930000E-02   7.387054791030000E-02
   7.513527948970000E-02   7.642162989030001E-02   7.772996865579999E-02
   7.906067164659999E-02   8.041412114780000E-02   8.179070597940000E-02
   8.319082160740000E-02   8.461487025809999E-02   8.606326103310000E-02
   8.753641002699999E-02   8.903474044699999E-02   9.055868273440000E-02
   9.210867468840001E-02   9.368516159170000E-02   9.528859633840001E-02
   9.691943956430001E-02   9.857815977910001E-02   1.002652335010000E-01
   1.019811453940000E-01   1.037263884060000E-01   1.055014639110000E-01
   1.073068818550000E-01   1.091431608990000E-01   1.110108285700000E-01
   1.129104214140000E-01   1.148424851460000E-01   1.168075748120000E-01
   1.188062549430000E-01   1.208390997210000E-01   1.229066931430000E-01
   1.250096291900000E-01   1.271485119940000E-01   1.293239560130000E-01
   1.315365862130000E-01   1.337870382370000E-01   1.360759585990000E-01
   1.384040048590000E-01   1.407718458210000E-01   1.431801617200000E-01
   1.456296444180000E-01   1.481209976040000E-01   1.506549369960000E-01
   1.532321905460000E-01   1.558534986480000E-01   1.585196143530000E-01
   1.612313035860000E-01   1.639893453620000E-01   1.667945320130000E-01
   1.696476694140000E-01   1.725495772180000E-01   1.755010890860000E-01
   1.785030529290000E-01   1.815563311550000E-01   1.846618009120000E-01
   1.878203543390000E-01   1.910328988300000E-01   1.943003572850000E-01
   1.976236683820000E-01   2.010037868440000E-01   2.044416837140000E-01
   2.079383466330000E-01   2.114947801250000E-01   2.151120058840000E-01
   2.187910630690000E-01   2.225330086020000E-01   2.263389174710000E-01
   2.302098830410000E-01   2.341470173650000E-01   2.381514515060000E-01
   2.422243358600000E-01   2.463668404870000E-01   2.505801554500000E-01
   2.548654911520000E-01   2.592240786870000E-01   2.636571701930000E-01
   2.681660392120000E-01   2.727519810530000E-01   2.774163131710000E-01
   2.821603755360000E-01   2.869855310260000E-01   2.918931658160000E-01
   2.968846897730000E-01   3.019615368660000E-01   3.071251655750000E-01
   3.123770593100000E-01   3.177187268390000E-01   3.231517027190000E-01
   3.286775477400000E-01   3.342978493690000E-01   3.400142222110000E-01
   3.458283084690000E-01   3.517417784170000E-01   3.577563308810000E-01
   3.638736937250000E-01   3.700956243500000E-01   3.764239101950000E-01
   3.828603692550000E-01   3.894068506000000E-01   3.960652349070000E-01
   4.028374350020000E-01   4.097253964050000E-01   4.167310978960000E-01
   4.238565520770000E-01   4.311038059520000E-01   4.384749415180000E-01
   4.459720763590000E-01   4.535973642570000E-01   4.613529958100000E-01
   4.692411990610000E-01   4.772642401370000E-01   4.854244239030000E-01
   4.937240946230000E-01   5.021656366300000E-01   5.107514750160000E-01
   5.194840763280000E-01   5.283659492710000E-01   5.373996454370000E-01
   5.465877600310000E-01   5.559329326210000E-01   5.654378478940000E-01
   5.751052364280000E-01   5.849378754780000E-01   5.949385897700000E-01
   6.051102523150000E-01   6.154557852360000E-01   6.259781606040000E-01
   6.366804012930000E-01   6.475655818510000E-01   6.586368293790000E-01
   6.698973244320000E-01   6.813503019329999E-01   6.929990521010000E-01
   7.048469213950000E-01   7.168973134800000E-01   7.291536902000000E-01
   7.416195725750000E-01   7.542985418110000E-01   7.671942403320000E-01
   7.803103728210000E-01   7.936507072900000E-01   8.072190761590000E-01
   8.210193773580000E-01   8.350555754450000E-01   8.493317027500000E-01
   8.638518605280000E-01   8.786202201380000E-01   8.936410242440000E-01
   9.089185880340001E-01   9.244573004550000E-01   9.402616254780000E-01
   9.563361033809999E-01   9.726853520510000E-01   9.893140683090000E-01
   1.006227029260000E+00   1.023429093680000E+00   1.040925203390000E+00
   1.058720384670000E+00   1.076819749730000E+00   1.095228498190000E+00
   1.113951918510000E+00   1.132995389570000E+00   1.152364382180000E+00
   1.172064460700000E+00   1.192101284560000E+00   1.212480609970000E+00
   1.233208291500000E+00   1.254290283820000E+00   1.275732643370000E+00
   1.297541530140000E+00   1.319723209390000E+00   1.342284053490000E+00
   1.365230543730000E+00   1.388569272200000E+00   1.412306943660000E+00
   1.436450377480000E+00   1.461006509610000E+00   1.485982394550000E+00
   1.511385207390000E+00   1.537222245850000E+00   1.563500932440000E+00
   1.590228816490000E+00   1.617413576420000E+00   1.645063021880000E+00
   1.673185096030000E+00   1.701787877780000E+00   1.730879584170000E+00
   1.760468572680000E+00   1.790563343660000E+00   1.821172542740000E+00
   1.852304963360000E+00   1.883969549270000E+00   1.916175397070000E+00
   1.948931758900000E+00   1.982248045030000E+00   2.016133826560000E+00
   2.050598838240000E+00   2.085652981190000E+00   2.121306325800000E+00
   2.157569114570000E+00   2.194451765110000E+00   2.231964873090000E+00
   2.270119215290000E+00   2.308925752720000E+00   2.348395633750000E+00
   2.388540197320000E+00   2.429370976170000E+00   2.470899700200000E+00
   2.513138299810000E+00   2.556098909340000E+00   2.599793870520000E+00
   2.644235736090000E+00   2.689437273320000E+00   2.735411467750000E+00
   2.782171526870000E+00   2.829730883950000E+00   2.878103201860000E+00
   2.927302377030000E+00   2.977342543440000E+00   3.028238076660000E+00
   3.080003597990000E+00   3.132653978660000E+00   3.186204344100000E+00
   3.240670078310000E+00   3.296066828240000E+00   3.352410508290000E+00
   3.409717304920000E+00   3.468003681250000E+00   3.527286381850000E+00
   3.587582437470000E+00   3.648909170020000E+00   3.711284197470000E+00
   3.774725438970000E+00   3.839251119950000E+00   3.904879777390000E+00
   3.971630265140000E+00   4.039521759320000E+00   4.108573763840000E+00
   4.178806116010000E+00   4.250238992220000E+00   4.322892913760000E+00
   4.396788752690000E+00   4.471947737860000E+00   4.548391460980000E+00
   4.626141882870000E+00   4.705221339710000E+00   4.785652549500000E+00
   4.867458618570000E+00   4.950663048220000E+00   5.035289741470000E+00
   5.121363009940000E+00   5.208907580810000E+00   5.297948603940000E+00
   5.388511659090000E+00   5.480622763280000E+00   5.574308378250000E+00
   5.669595418050000E+00   5.766511256810000E+00   5.865083736590000E+00
   5.965341175330000E+00   6.067312375070000E+00   6.171026630150000E+00
   6.276513735690000E+00   6.383803996070000E+00   6.492928233710000E+00
   6.603917797910000E+00   6.716804573800000E+00   6.831620991590000E+00
   6.948400035790000E+00   7.067175254780000E+00   7.187980770370000E+00
   7.310851287660000E+00   7.435822104950000E+00   7.562929123960000E+00
   7.692208860070000E+00   7.823698452840000E+00   7.957435676690000E+00
   8.093458951730000E+00   8.231807354830000E+00   8.372520630790000E+00
   8.515639203830000E+00   8.661204189139999E+00   8.809257404709999E+00
   8.959841383390000E+00   9.112999385020000E+00   9.268775408930001E+00
   9.427214206580000E+00   9.588361294349999E+00   9.752262966689999E+00
   9.918966309369999E+00   1.008851921300000E+01   1.026097038700000E+01
   1.043636937300000E+01   1.061476656000000E+01   1.079621319790000E+01
   1.098076141280000E+01   1.116846422190000E+01   1.135937554860000E+01
   1.155355023800000E+01   1.175104407260000E+01   1.195191378880000E+01
   1.215621709240000E+01   1.236401267590000E+01   1.257536023490000E+01
   1.279032048540000E+01   1.300895518140000E+01   1.323132713240000E+01
   1.345750022160000E+01   1.368753942410000E+01   1.392151082570000E+01
   1.415948164180000E+01   1.440152023700000E+01   1.464769614410000E+01
   1.489808008490000E+01   1.515274398960000E+01   1.541176101840000E+01
   1.567520558180000E+01   1.594315336240000E+01   1.621568133630000E+01
   1.649286779550000E+01   1.677479237050000E+01   1.706153605260000E+01
   1.735318121780000E+01   1.764981165000000E+01   1.795151256550000E+01
   1.825837063710000E+01   1.857047401920000E+01   1.888791237300000E+01
   1.921077689240000E+01   1.953916033020000E+01   1.987315702460000E+01
   2.021286292640000E+01   2.055837562640000E+01   2.090979438380000E+01
   2.126722015450000E+01   2.163075561990000E+01   2.200050521670000E+01
   2.237657516680000E+01   2.275907350790000E+01   2.314811012430000E+01
   2.354379677870000E+01   2.394624714430000E+01   2.435557683710000E+01
   2.477190344980000E+01   2.519534658500000E+01   2.562602788950000E+01
   2.606407108990000E+01   2.650960202750000E+01   2.696274869470000E+01
   2.742364127170000E+01   2.789241216410000E+01   2.836919604060000E+01
   2.885412987220000E+01   2.934735297080000E+01   2.984900702990000E+01
   3.035923616510000E+01   3.087818695520000E+01   3.140600848480000E+01
   3.194285238690000E+01   3.248887288620000E+01   3.304422684400000E+01
   3.360907380260000E+01   3.418357603160000E+01   3.476789857440000E+01
   3.536220929570000E+01   3.596667892930000E+01   3.658148112760000E+01
   3.720679251160000E+01   3.784279272090000E+01   3.848966446620000E+01
   3.914759358120000E+01   3.981676907620000E+01   4.049738319240000E+01
   4.118963145710000E+01   4.189371273970000E+01   4.260982930920000E+01
   4.333818689200000E+01   4.407899473120000E+01   4.483246564660000E+01
   4.559881609570000E+01   4.637826623620000E+01   4.717103998900000E+01
   4.797736510270000E+01   4.879747321890000E+01   4.963159993890000E+01
   5.047998489090000E+01   5.134287179970000E+01   5.222050855600000E+01
   5.311314728780000E+01   5.402104443290000E+01   5.494446081260000E+01
   5.588366170670000E+01   5.683891692920000E+01   5.781050090660000E+01
   5.879869275610000E+01   5.980377636620000E+01   6.082604047790000E+01
   6.186577876780000E+01   6.292328993280000E+01   6.399887777530000E+01
   6.509285129080000E+01   6.620552475680000E+01   6.733721782290000E+01
   6.848825560250000E+01   6.965896876650000E+01   7.084969363819999E+01
   7.206077228980000E+01   7.329255264080000E+01   7.454538855780000E+01
   7.581963995629999E+01   7.711567290409999E+01   7.843385972630000E+01
   7.977457911270000E+01   8.113821622579999E+01   8.252516281219999E+01
   8.393581731490001E+01   8.537058498760000E+01   8.682987801130000E+01
   8.831411561260001E+01   8.982372418420000E+01   9.135913740760000E+01
   9.292079637720001E+01   9.450914972740000E+01   9.612465376140000E+01
   9.776777258230000E+01   9.943897822620001E+01   1.011387507980000E+02
   1.028675786100000E+02   1.046259583210000E+02   1.064143950790000E+02
   1.082334026670000E+02   1.100835036510000E+02   1.119652295290000E+02
   1.138791208860000E+02   1.158257275440000E+02   1.178056087260000E+02
   1.198193332130000E+02   1.218674795110000E+02   1.239506360110000E+02
   1.260694011640000E+02   1.282243836500000E+02   1.304162025550000E+02
   1.326454875450000E+02   1.349128790500000E+02   1.372190284490000E+02
   1.395645982530000E+02   1.419502623000000E+02   1.443767059430000E+02
   1.468446262550000E+02   1.493547322200000E+02   1.519077449440000E+02
   1.545043978570000E+02   1.571454369270000E+02   1.598316208750000E+02
   1.625637213880000E+02   1.653425233470000E+02   1.681688250470000E+02
   1.710434384300000E+02   1.739671893170000E+02   1.769409176450000E+02
   1.799654777090000E+02   1.830417384060000E+02   1.861705834860000E+02
   1.893529118060000E+02   1.925896375870000E+02   1.958816906790000E+02
   1.992300168240000E+02   2.026355779310000E+02   2.060993523520000E+02
    </PP_R>
    <PP_RAB>
   2.000607083670000E-06   2.034804669690000E-06   2.069586815720000E-06
   2.104963513990000E-06   2.140944927540000E-06   2.177541393150000E-06
   2.214763424260000E-06   2.252621714040000E-06   2.291127138460000E-06
   2.330290759360000E-06   2.370123827700000E-06   2.410637786760000E-06
   2.451844275410000E-06   2.493755131470000E-06   2.536382395120000E-06
   2.579738312360000E-06   2.623835338490000E-06   2.668686141740000E-06
   2.714303606880000E-06   2.760700838920000E-06   2.807891166890000E-06
   2.855888147660000E-06   2.904705569830000E-06   2.954357457700000E-06
   3.004858075290000E-06   3.056221930470000E-06   3.108463779070000E-06
   3.161598629160000E-06   3.215641745350000E-06   3.270608653190000E-06
   3.326515143610000E-06   3.383377277470000E-06   3.441211390140000E-06
   3.500034096250000E-06   3.559862294430000E-06   3.620713172160000E-06
   3.682604210720000E-06   3.745553190210000E-06   3.809578194650000E-06
   3.874697617190000E-06   3.940930165380000E-06   4.008294866540000E-06
   4.076811073250000E-06   4.146498468900000E-06   4.217377073310000E-06
   4.289467248550000E-06   4.362789704730000E-06   4.437365505960000E-06
   4.513216076440000E-06   4.590363206560000E-06   4.668829059200000E-06
   4.748636176090000E-06   4.829807484260000E-06   4.912366302660000E-06
   4.996336348840000E-06   5.081741745760000E-06   5.168607028760000E-06
   5.256957152540000E-06   5.346817498380000E-06   5.438213881420000E-06
   5.531172558080000E-06   5.625720233580000E-06   5.721884069650000E-06
   5.819691692280000E-06   5.919171199720000E-06   6.020351170500000E-06
   6.123260671680000E-06   6.227929267150000E-06   6.334387026190000E-06
   6.442664532050000E-06   6.552792890750000E-06   6.664803740050000E-06
   6.778729258500000E-06   6.894602174690000E-06   7.012455776660000E-06
   7.132323921490000E-06   7.254241044960000E-06   7.378242171500000E-06
   7.504362924250000E-06   7.632639535250000E-06   7.763108855890000E-06
   7.895808367479999E-06   8.030776192030000E-06   8.168051103170000E-06
   8.307672537330001E-06   8.449680605060000E-06   8.594116102510001E-06
   8.741020523220000E-06   8.890436069979999E-06   9.042405666979999E-06
   9.196972972150000E-06   9.354182389690000E-06   9.514079082820000E-06
   9.676708986760001E-06   9.842118821950001E-06   1.001035610740000E-05
   1.018146917450000E-05   1.035550718060000E-05   1.053252012360000E-05
   1.071255885580000E-05   1.089567509880000E-05   1.108192145850000E-05
   1.127135143970000E-05   1.146401946210000E-05   1.165998087550000E-05
   1.185929197580000E-05   1.206201002110000E-05   1.226819324850000E-05
   1.247790089040000E-05   1.269119319180000E-05   1.290813142740000E-05
   1.312877791940000E-05   1.335319605520000E-05   1.358145030590000E-05
   1.381360624440000E-05   1.404973056470000E-05   1.428989110070000E-05
   1.453415684590000E-05   1.478259797320000E-05   1.503528585470000E-05
   1.529229308290000E-05   1.555369349110000E-05   1.581956217440000E-05
   1.608997551170000E-05   1.636501118770000E-05   1.664474821470000E-05
   1.692926695580000E-05   1.721864914770000E-05   1.751297792430000E-05
   1.781233784060000E-05   1.811681489680000E-05   1.842649656340000E-05
   1.874147180590000E-05   1.906183111060000E-05   1.938766651050000E-05
   1.971907161180000E-05   2.005614162080000E-05   2.039897337120000E-05
   2.074766535180000E-05   2.110231773530000E-05   2.146303240630000E-05
   2.182991299120000E-05   2.220306488770000E-05   2.258259529500000E-05
   2.296861324500000E-05   2.336122963310000E-05   2.376055725050000E-05
   2.416671081610000E-05   2.457980701010000E-05   2.499996450700000E-05
   2.542730401000000E-05   2.586194828540000E-05   2.630402219800000E-05
   2.675365274720000E-05   2.721096910320000E-05   2.767610264400000E-05
   2.814918699360000E-05   2.863035805980000E-05   2.911975407390000E-05
   2.961751562990000E-05   3.012378572500000E-05   3.063870980080000E-05
   3.116243578510000E-05   3.169511413410000E-05   3.223689787610000E-05
   3.278794265500000E-05   3.334840677540000E-05   3.391845124770000E-05
   3.449823983480000E-05   3.508793909850000E-05   3.568771844820000E-05
   3.629775018880000E-05   3.691820957070000E-05   3.754927483970000E-05
   3.819112728880000E-05   3.884395130980000E-05   3.950793444630000E-05
   4.018326744780000E-05   4.087014432450000E-05   4.156876240280000E-05
   4.227932238220000E-05   4.300202839270000E-05   4.373708805390000E-05
   4.448471253410000E-05   4.524511661140000E-05   4.601851873520000E-05
   4.680514108890000E-05   4.760520965390000E-05   4.841895427440000E-05
   4.924660872360000E-05   5.008841077050000E-05   5.094460224860000E-05
   5.181542912500000E-05   5.270114157160000E-05   5.360199403630000E-05
   5.451824531670000E-05   5.545015863400000E-05   5.639800170890000E-05
   5.736204683830000E-05   5.834257097370000E-05   5.933985580080000E-05
   6.035418782020000E-05   6.138585842989999E-05   6.243516400880000E-05
   6.350240600220000E-05   6.458789100800000E-05   6.569193086500000E-05
   6.681484274260000E-05   6.795694923160000E-05   6.911857843710000E-05
   7.030006407260000E-05   7.150174555619999E-05   7.272396810770000E-05
   7.396708284800000E-05   7.523144689980000E-05   7.651742349050000E-05
   7.782538205630000E-05   7.915569834840001E-05   8.050875454090000E-05
   8.188493934069999E-05   8.328464809900000E-05   8.470828292500000E-05
   8.615625280160000E-05   8.762897370239999E-05   8.912686871170000E-05
   9.065036814560000E-05   9.219990967620000E-05   9.377593845669999E-05
   9.537890724960000E-05   9.700927655700000E-05   9.866751475219999E-05
   1.003540982150000E-04   1.020695114690000E-04   1.038142473180000E-04
   1.055888069910000E-04   1.073937002850000E-04   1.092294457120000E-04
   1.110965706440000E-04   1.129956114710000E-04   1.149271137510000E-04
   1.168916323670000E-04   1.188897316870000E-04   1.209219857260000E-04
   1.229889783110000E-04   1.250913032500000E-04   1.272295645000000E-04
   1.294043763420000E-04   1.316163635570000E-04   1.338661616070000E-04
   1.361544168140000E-04   1.384817865500000E-04   1.408489394240000E-04
   1.432565554730000E-04   1.457053263580000E-04   1.481959555640000E-04
   1.507291586000000E-04   1.533056632070000E-04   1.559262095640000E-04
   1.585915505030000E-04   1.613024517270000E-04   1.640596920230000E-04
   1.668640634940000E-04   1.697163717820000E-04   1.726174362990000E-04
   1.755680904650000E-04   1.785691819470000E-04   1.816215728990000E-04
   1.847261402140000E-04   1.878837757740000E-04   1.910953867080000E-04
   1.943618956490000E-04   1.976842410010000E-04   2.010633772100000E-04
   2.045002750360000E-04   2.079959218350000E-04   2.115513218370000E-04
   2.151674964390000E-04   2.188454845000000E-04   2.225863426340000E-04
   2.263911455170000E-04   2.302609861950000E-04   2.341969763990000E-04
   2.382002468620000E-04   2.422719476460000E-04   2.464132484730000E-04
   2.506253390580000E-04   2.549094294530000E-04   2.592667503950000E-04
   2.636985536570000E-04   2.682061124100000E-04   2.727907215900000E-04
   2.774536982650000E-04   2.821963820190000E-04   2.870201353320000E-04
   2.919263439760000E-04   2.969164174100000E-04   3.019917891850000E-04
   3.071539173580000E-04   3.124042849070000E-04   3.177444001620000E-04
   3.231757972340000E-04   3.287000364590000E-04   3.343187048440000E-04
   3.400334165240000E-04   3.458458132240000E-04   3.517575647340000E-04
   3.577703693850000E-04   3.638859545410000E-04   3.701060770900000E-04
   3.764325239520000E-04   3.828671125950000E-04   3.894116915500000E-04
   3.960681409490000E-04   4.028383730610000E-04   4.097243328410000E-04
   4.167279984940000E-04   4.238513820370000E-04   4.310965298810000E-04
   4.384655234150000E-04   4.459604796090000E-04   4.535835516200000E-04