<UPF version="2.0.1">
  <PP_INFO>
    Generated by new atomic code, or converted to UPF format
    Author: 
    Generation date: 
    Pseudopotential type: US
    Element: Se
    Functional: SLA  PZ   NOGX NOGC
    Suggested minimum cutoff for wavefunctions:   0. Ry
    Suggested minimum cutoff for charge density:   0. Ry
    The Pseudo was generated with a Non-Relativistic Calculation
    L component and cutoff radius for Local Potential:  0   0.0000
    Valence configuration: 
    nl pn  l   occ       Rcut    Rcut US       E pseu
    4S  1  0  2.00      0.000      0.000     0.000000
    4P  2  1  4.00      0.000      0.000     0.000000
    Generation configuration: not available.
  </PP_INFO>
    <!-- END OF HUMAN READABLE SECTION -->
  <PP_HEADER generated="Generated by new atomic code, or converted to UPF format" author="" date="" comment="" element="Se" pseudo_type="US" relativistic="no" is_ultrasoft="true" is_paw="false" is_coulomb="false" has_so="false" has_wfc="false" has_gipaw="false" paw_as_gipaw="false" core_correction="true" functional="SLA  PZ   NOGX NOGC" z_valence="6.0000000000000000" total_psenergy="-42.882341499600003" wfc_cutoff="0.0000000000000000" rho_cutoff="0.0000000000000000" l_max="2" l_max_rho="0" l_local="0" mesh_size="877" number_of_wfc="2" number_of_proj="6"/>
  <PP_MESH>
    <PP_R>
   0.000000000000000E+00   1.246200267060000E-06   2.513702588470000E-06
   3.802871093120000E-06   5.114076134170000E-06   6.447694395470000E-06
   7.804108999730000E-06   9.183709618610001E-06   1.058689258470000E-05
   1.201406100530000E-05   1.346562487820000E-05   1.494200120980000E-05
   1.644361413430000E-05   1.797089503600000E-05   1.952428267330000E-05
   2.110422330430000E-05   2.271117081540000E-05   2.434558685150000E-05
   2.600794094880000E-05   2.769871066930000E-05   2.941838173860000E-05
   3.116744818470000E-05   3.294641248080000E-05   3.475578568880000E-05
   3.659608760650000E-05   3.846784691720000E-05   4.037160134110000E-05
   4.230789778990000E-05   4.427729252420000E-05   4.628035131300000E-05
   4.831764959620000E-05   5.038977265040000E-05   5.249731575620000E-05
   5.464088437020000E-05   5.682109429800000E-05   5.903857187180000E-05
   6.129395412999999E-05   6.358788900020001E-05   6.592103548559999E-05
   6.829406385400000E-05   7.070765583050000E-05   7.316250479339999E-05
   7.565931597330000E-05   7.819880665580000E-05   8.078170638730000E-05
   8.340875718500000E-05   8.608071374980000E-05   8.879834368300000E-05
   9.156242770710000E-05   9.437375989009999E-05   9.723314787310000E-05
   1.001414131030000E-04   1.030993910690000E-04   1.061079315390000E-04
   1.091678988100000E-04   1.122801719510000E-04   1.154456450580000E-04
   1.186652275100000E-04   1.219398442300000E-04   1.252704359540000E-04
   1.286579594940000E-04   1.321033880220000E-04   1.356077113420000E-04
   1.391719361780000E-04   1.427970864640000E-04   1.464842036350000E-04
   1.502343469280000E-04   1.540485936860000E-04   1.579280396700000E-04
   1.618737993690000E-04   1.658870063230000E-04   1.699688134490000E-04
   1.741203933710000E-04   1.783429387580000E-04   1.826376626650000E-04
   1.870057988840000E-04   1.914486022950000E-04   1.959673492300000E-04
   2.005633378380000E-04   2.052378884560000E-04   2.099923439940000E-04
   2.148280703130000E-04   2.197464566250000E-04   2.247489158870000E-04
   2.298368852090000E-04   2.350118262650000E-04   2.402752257160000E-04
   2.456285956350000E-04   2.510734739420000E-04   2.566114248450000E-04
   2.622440392890000E-04   2.679729354170000E-04   2.737997590280000E-04
   2.797261840570000E-04   2.857539130510000E-04   2.918846776590000E-04
   2.981202391330000E-04   3.044623888270000E-04   3.109129487190000E-04
   3.174737719310000E-04   3.241467432580000E-04   3.309337797170000E-04
   3.378368310930000E-04   3.448578804980000E-04   3.519989449440000E-04
   3.592620759200000E-04   3.666493599840000E-04   3.741629193590000E-04
   3.818049125460000E-04   3.895775349410000E-04   3.974830194680000E-04
   4.055236372200000E-04   4.137016981110000E-04   4.220195515400000E-04
   4.304795870640000E-04   4.390842350890000E-04   4.478359675630000E-04
   4.567372986900000E-04   4.657907856490000E-04   4.749990293330000E-04
   4.843646750910000E-04   4.938904134930000E-04   5.035789810990000E-04
   5.134331612460000E-04   5.234557848500000E-04   5.336497312170000E-04
   5.440179288710000E-04   5.545633563930000E-04   5.652890432809999E-04
   5.761980708180000E-04   5.872935729560000E-04   5.985787372180000E-04
   6.100568056130000E-04   6.217310755690000E-04   6.336049008760000E-04
   6.456816926560000E-04   6.579649203370000E-04   6.704581126530000E-04
   6.831648586550000E-04   6.960888087470000E-04   7.092336757280000E-04
   7.226032358660000E-04   7.362013299750000E-04   7.500318645250001E-04
   7.640988127620000E-04   7.784062158470000E-04   7.929581840190000E-04
   8.077588977790000E-04   8.228126090839999E-04   8.381236425750000E-04
   8.536963968149999E-04   8.695353455560000E-04   8.856450390200000E-04
   9.020301052100000E-04   9.186952512410000E-04   9.356452646840000E-04
   9.528850149520000E-04   9.704194546900000E-04   9.882536212049999E-04
   1.006392637910000E-03   1.024841715780000E-03   1.043606154900000E-03
   1.062691345910000E-03   1.082102771630000E-03   1.101846008580000E-03
   1.121926728610000E-03   1.142350700530000E-03   1.163123791740000E-03
   1.184251969960000E-03   1.205741304890000E-03   1.227597970020000E-03
   1.249828244330000E-03   1.272438514160000E-03   1.295435274990000E-03
   1.318825133360000E-03   1.342614808710000E-03   1.366811135360000E-03
   1.391421064450000E-03   1.416451665920000E-03   1.441910130600000E-03
   1.467803772200000E-03   1.494140029470000E-03   1.520926468300000E-03
   1.548170783910000E-03   1.575880803080000E-03   1.604064486360000E-03
   1.632729930370000E-03   1.661885370130000E-03   1.691539181450000E-03
   1.721699883290000E-03   1.752376140240000E-03   1.783576764980000E-03
   1.815310720860000E-03   1.847587124430000E-03   1.880415248070000E-03
   1.913804522670000E-03   1.947764540320000E-03   1.982305057080000E-03
   2.017435995760000E-03   2.053167448820000E-03   2.089509681190000E-03
   2.126473133310000E-03   2.164068424060000E-03   2.202306353830000E-03
   2.241197907650000E-03   2.280754258300000E-03   2.320986769560000E-03
   2.361906999450000E-03   2.403526703570000E-03   2.445857838440000E-03
   2.488912564980000E-03   2.532703251990000E-03   2.577242479670000E-03
   2.622543043290000E-03   2.668617956830000E-03   2.715480456710000E-03
   2.763144005620000E-03   2.811622296380000E-03   2.860929255870000E-03
   2.911079049010000E-03   2.962086082880000E-03   3.013965010810000E-03
   3.066730736600000E-03   3.120398418840000E-03   3.174983475210000E-03
   3.230501586930000E-03   3.286968703300000E-03   3.344401046210000E-03
   3.402815114870000E-03   3.462227690510000E-03   3.522655841220000E-03
   3.584116926820000E-03   3.646628603910000E-03   3.710208830880000E-03
   3.774875873090000E-03   3.840648308140000E-03   3.907545031170000E-03
   3.975585260330000E-03   4.044788542240000E-03   4.115174757670000E-03
   4.186764127230000E-03   4.259577217150000E-03   4.333634945220000E-03
   4.408958586790000E-03   4.485569780900000E-03   4.563490536450000E-03
   4.642743238570000E-03   4.723350655020000E-03   4.805335942760000E-03
   4.888722654580000E-03   4.973534745860000E-03   5.059796581470000E-03
   5.147532942780000E-03   5.236769034740000E-03   5.327530493150000E-03
   5.419843392020000E-03   5.513734251070000E-03   5.609230043320000E-03
   5.706358202860000E-03   5.805146632730000E-03   5.905623712940000E-03
   6.007818308610000E-03   6.111759778270000E-03   6.217477982300000E-03
   6.325003291470000E-03   6.434366595750000E-03   6.545599313080000E-03
   6.658733398480000E-03   6.773801353170000E-03   6.890836233960000E-03
   7.009871662700000E-03   7.130941835970000E-03   7.254081534890000E-03
   7.379326135100000E-03   7.506711616960000E-03   7.636274575850000E-03
   7.768052232700000E-03   7.902082444690000E-03   8.038403716089999E-03
   8.177055209380000E-03   8.318076756440000E-03   8.461508870040000E-03
   8.607392755440001E-03   8.755770322270000E-03   8.906684196530000E-03
   9.060177732840000E-03   9.216295026950001E-03   9.375080928309999E-03
   9.536581053060000E-03   9.700841797050001E-03   9.867910349210000E-03
   1.003783470510000E-02   1.021066368070000E-02   1.038644692650000E-02
   1.056523494150000E-02   1.074707908810000E-02   1.093203160660000E-02
   1.112014563030000E-02   1.131147520070000E-02   1.150607528300000E-02
   1.170400178220000E-02   1.190531155870000E-02   1.211006244490000E-02
   1.231831326170000E-02   1.253012383550000E-02   1.274555501560000E-02
   1.296466869090000E-02   1.318752780880000E-02   1.341419639230000E-02
   1.364473955880000E-02   1.387922353910000E-02   1.411771569570000E-02
   1.436028454290000E-02   1.460699976600000E-02   1.485793224160000E-02
   1.511315405760000E-02   1.537273853430000E-02   1.563676024550000E-02
   1.590529503920000E-02   1.617842006060000E-02   1.645621377290000E-02
   1.673875598110000E-02   1.702612785410000E-02   1.731841194810000E-02
   1.761569223080000E-02   1.791805410510000E-02   1.822558443360000E-02
   1.853837156390000E-02   1.885650535360000E-02   1.918007719650000E-02
   1.950918004850000E-02   1.984390845440000E-02   2.018435857530000E-02
   2.053062821580000E-02   2.088281685260000E-02   2.124102566260000E-02
   2.160535755230000E-02   2.197591718720000E-02   2.235281102190000E-02
   2.273614733070000E-02   2.312603623870000E-02   2.352258975350000E-02
   2.392592179710000E-02   2.433614823920000E-02   2.475338692980000E-02
   2.517775773340000E-02   2.560938256370000E-02   2.604838541810000E-02
   2.649489241360000E-02   2.694903182310000E-02   2.741093411190000E-02
   2.788073197580000E-02   2.835856037840000E-02   2.884455659080000E-02
   2.933886023010000E-02   2.984161330030000E-02   3.035296023260000E-02
   3.087304792700000E-02   3.140202579470000E-02   3.194004580090000E-02
   3.248726250810000E-02   3.304383312130000E-02   3.360991753240000E-02
   3.418567836640000E-02   3.477128102830000E-02   3.536689375050000E-02
   3.597268764090000E-02   3.658883673250000E-02   3.721551803280000E-02
   3.785291157530000E-02   3.850120047100000E-02   3.916057096050000E-02
   3.983121246830000E-02   4.051331765670000E-02   4.120708248140000E-02
   4.191270624750000E-02   4.263039166710000E-02   4.336034491740000E-02
   4.410277569980000E-02   4.485789730020000E-02   4.562592665050000E-02
   4.640708439070000E-02   4.720159493230000E-02   4.800968652270000E-02
   4.883159131110000E-02   4.966754541480000E-02   5.051778898720000E-02
   5.138256628690000E-02   5.226212574770000E-02   5.315672004990000E-02
   5.406660619310000E-02   5.499204557020000E-02   5.593330404180000E-02
   5.689065201340000E-02   5.786436451250000E-02   5.885472126780000E-02
   5.986200678970000E-02   6.088651045180000E-02   6.192852657420000E-02
   6.298835450800000E-02   6.406629872120000E-02   6.516266888630000E-02
   6.627777996920001E-02   6.741195231990001E-02   6.856551176410000E-02
   6.973878969699999E-02   7.093212317870000E-02   7.214585503090000E-02
   7.338033393520001E-02   7.463591453350001E-02   7.591295752980000E-02
   7.721182979390000E-02   7.853290446660000E-02   7.987656106710000E-02
   8.124318560200000E-02   8.263317067610000E-02   8.404691560510000E-02
   8.548482653059999E-02   8.694731653660000E-02   8.843480576819999E-02
   8.994772155230001E-02   9.148649852019999E-02   9.305157873290000E-02
   9.464341180760000E-02   9.626245504700000E-02   9.790917357120001E-02
   9.958404045020000E-02   1.012875368410000E-01   1.030201521250000E-01
   1.047823840500000E-01   1.065747388700000E-01   1.083977314940000E-01
   1.102518856330000E-01   1.121377339490000E-01   1.140558182100000E-01
   1.160066894450000E-01   1.179909081010000E-01   1.200090442050000E-01
   1.220616775300000E-01   1.241493977570000E-01   1.262728046470000E-01
   1.284325082150000E-01   1.306291289010000E-01   1.328632977520000E-01
   1.351356566010000E-01   1.374468582540000E-01   1.397975666730000E-01
   1.421884571730000E-01   1.446202166080000E-01   1.470935435770000E-01
   1.496091486190000E-01   1.521677544190000E-01   1.547700960130000E-01
   1.574169210060000E-01   1.601089897770000E-01   1.628470757080000E-01
   1.656319653950000E-01   1.684644588860000E-01   1.713453699000000E-01
   1.742755260660000E-01   1.772557691630000E-01   1.802869553570000E-01
   1.833699554480000E-01   1.865056551230000E-01   1.896949552080000E-01
   1.929387719270000E-01   1.962380371650000E-01   1.995936987380000E-01
   2.030067206630000E-01   2.064780834340000E-01   2.100087843070000E-01
   2.135998375840000E-01   2.172522749050000E-01   2.209671455440000E-01
   2.247455167130000E-01   2.285884738630000E-01   2.324971210030000E-01
   2.364725810110000E-01   2.405159959590000E-01   2.446285274430000E-01
   2.488113569130000E-01   2.530656860150000E-01   2.573927369360000E-01
   2.617937527530000E-01   2.662699977940000E-01   2.708227579960000E-01
   2.754533412810000E-01   2.801630779240000E-01   2.849533209420000E-01
   2.898254464790000E-01   2.947808542020000E-01   2.998209677050000E-01
   3.049472349140000E-01   3.101611285070000E-01   3.154641463340000E-01
   3.208578118490000E-01   3.263436745500000E-01   3.319233104170000E-01
   3.375983223720000E-01   3.433703407360000E-01   3.492410236990000E-01
   3.552120577940000E-01   3.612851583840000E-01   3.674620701520000E-01
   3.737445676060000E-01   3.801344555870000E-01   3.866335697850000E-01
   3.932437772690000E-01   3.999669770260000E-01   4.068051004990000E-01
   4.137601121490000E-01   4.208340100180000E-01   4.280288262970000E-01
   4.353466279200000E-01   4.427895171490000E-01   4.503596321820000E-01
   4.580591477670000E-01   4.658902758240000E-01   4.738552660870000E-01
   4.819564067420000E-01   4.901960250910000E-01   4.985764882160000E-01
   5.071002036620000E-01   5.157696201280000E-01   5.245872281690001E-01
   5.335555609140000E-01   5.426771947910000E-01   5.519547502680000E-01
   5.613908926090000E-01   5.709883326340000E-01   5.807498275010000E-01
   5.906781815000000E-01   6.007762468550000E-01   6.110469245440000E-01
   6.214931651340000E-01   6.321179696280000E-01   6.429243903260000E-01
   6.539155317050001E-01   6.650945513060000E-01   6.764646606460000E-01
   6.880291261370000E-01   6.997912700259999E-01   7.117544713490001E-01
   7.239221669030000E-01   7.362978522310000E-01   7.488850826280000E-01
   7.616874741610000E-01   7.747087047110000E-01   7.879525150240000E-01
   8.014227097920000E-01   8.151231587390000E-01   8.290577977410000E-01
   8.432306299500000E-01   8.576457269450000E-01   8.723072299050000E-01
   8.872193507970000E-01   9.023863735840000E-01   9.178126554579999E-01
   9.335026280910000E-01   9.494607989100000E-01   9.656917523870000E-01
   9.822001513620000E-01   9.989907383780000E-01   1.016068337050000E+00
   1.033437853430000E+00   1.051104277450000E+00   1.069072684340000E+00
   1.087348236070000E+00   1.105936182850000E+00   1.124841864630000E+00
   1.144070712660000E+00   1.163628251020000E+00   1.183520098190000E+00
   1.203751968740000E+00   1.224329674870000E+00   1.245259128170000E+00
   1.266546341270000E+00   1.288197429560000E+00   1.310218612990000E+00
   1.332616217820000E+00   1.355396678450000E+00   1.378566539260000E+00
   1.402132456500000E+00   1.426101200210000E+00   1.450479656140000E+00
   1.475274827760000E+00   1.500493838220000E+00   1.526143932480000E+00
   1.552232479300000E+00   1.578766973410000E+00   1.605755037680000E+00
   1.633204425230000E+00   1.661123021760000E+00   1.689518847730000E+00
   1.718400060720000E+00   1.747774957730000E+00   1.777651977620000E+00
   1.808039703460000E+00   1.838946865070000E+00   1.870382341460000E+00
   1.902355163460000E+00   1.934874516230000E+00   1.967949741950000E+00
   2.001590342490000E+00   2.035805982150000E+00   2.070606490410000E+00
   2.106001864800000E+00   2.142002273710000E+00   2.178618059380000E+00
   2.215859740790000E+00   2.253738016780000E+00   2.292263769030000E+00
   2.331448065250000E+00   2.371302162320000E+00   2.411837509560000E+00
   2.453065752000000E+00   2.494998733700000E+00   2.537648501200000E+00
   2.581027306950000E+00   2.625147612840000E+00   2.670022093790000E+00
   2.715663641370000E+00   2.762085367500000E+00   2.809300608250000E+00
   2.857322927650000E+00   2.906166121580000E+00   2.955844221750000E+00
   3.006371499700000E+00   3.057762470960000E+00   3.110031899140000E+00
   3.163194800260000E+00   3.217266446970000E+00   3.272262373020000E+00
   3.328198377670000E+00   3.385090530260000E+00   3.442955174800000E+00
   3.501808934680000E+00   3.561668717440000E+00   3.622551719660000E+00
   3.684475431820000E+00   3.747457643420000E+00   3.811516448040000E+00
   3.876670248510000E+00   3.942937762280000E+00   4.010338026710000E+00
   4.078890404590000E+00   4.148614589700000E+00   4.219530612450000E+00
   4.291658845640000E+00   4.365020010310000E+00   4.439635181700000E+00
   4.515525795320000E+00   4.592713653060000E+00   4.671220929510000E+00
   4.751070178280000E+00   4.832284338520000E+00   4.914886741480000E+00
   4.998901117250000E+00   5.084351601510000E+00   5.171262742550000E+00
   5.259659508250000E+00   5.349567293290000E+00   5.441011926440000E+00
   5.534019677970000E+00   5.628617267220000E+00   5.724831870220000E+00
   5.822691127590000E+00   5.922223152390000E+00   6.023456538250000E+00
   6.126420367550000E+00   6.231144219820000E+00   6.337658180190000E+00
   6.445992848060000E+00   6.556179345880000E+00   6.668249328110000E+00
   6.782234990270000E+00   6.898169078250000E+00   7.016084897670000E+00
   7.136016323450000E+00   7.257997809580000E+00   7.382064398970000E+00
   7.508251733560000E+00   7.636596064530000E+00   7.767134262720000E+00
   7.899903829220000E+00   8.034942906170000E+00   8.172290287670000E+00
   8.311985430980000E+00   8.454068467810000E+00   8.598580215849999E+00
   8.745562190550000E+00   8.895056616970001E+00   9.047106441970000E+00
   9.201755346540001E+00   9.359047758290000E+00   9.519028864299999E+00
   9.681744624049999E+00   9.847241782630000E+00   1.001556788420000E+01
   1.018677128550000E+01   1.036090117000000E+01   1.053800756190000E+01
   1.071814134040000E+01   1.090135425440000E+01   1.108769893750000E+01
   1.127722892290000E+01   1.146999865890000E+01   1.166606352450000E+01
   1.186547984530000E+01   1.206830490980000E+01   1.227459698580000E+01
   1.248441533690000E+01   1.269782023980000E+01   1.291487300180000E+01
   1.313563597780000E+01   1.336017258870000E+01   1.358854733970000E+01
   1.382082583830000E+01   1.405707481370000E+01   1.429736213560000E+01
   1.454175683390000E+01   1.479032911850000E+01   1.504315039940000E+01
   1.530029330730000E+01   1.556183171420000E+01   1.582784075530000E+01
   1.609839684970000E+01   1.637357772290000E+01   1.665346242910000E+01
   1.693813137370000E+01   1.722766633660000E+01   1.752215049570000E+01
   1.782166845050000E+01   1.812630624670000E+01   1.843615140080000E+01
   1.875129292550000E+01   1.907182135470000E+01   1.939782877010000E+01
   1.972940882720000E+01   2.006665678270000E+01   2.040966952130000E+01
   2.075854558390000E+01   2.111338519600000E+01   2.147429029600000E+01
   2.184136456500000E+01   2.221471345630000E+01   2.259444422590000E+01
   2.298066596300000E+01   2.337348962170000E+01   2.377302805270000E+01
   2.417939603550000E+01   2.459271031180000E+01   2.501308961880000E+01
   2.544065472350000E+01   2.587552845690000E+01   2.631783574980000E+01
   2.676770366860000E+01   2.722526145160000E+01   2.769064054640000E+01
   2.816397464730000E+01   2.864539973410000E+01   2.913505411080000E+01
   2.963307844580000E+01   3.013961581170000E+01   3.065481172690000E+01
   3.117881419730000E+01   3.171177375870000E+01   3.225384351990000E+01
   3.280517920720000E+01   3.336593920860000E+01   3.393628461960000E+01
   3.451637928940000E+01   3.510638986800000E+01   3.570648585410000E+01
   3.631683964350000E+01   3.693762657910000E+01   3.756902500100000E+01
   3.821121629780000E+01   3.886438495850000E+01   3.952871862590000E+01
   4.020440815020000E+01   4.089164764390000E+01   4.159063453770000E+01
   4.230156963680000E+01   4.302465717930000E+01   4.376010489420000E+01
   4.450812406140000E+01   4.526892957230000E+01   4.604273999160000E+01
   4.682977762010000E+01   4.763026855840000E+01   4.844444277210000E+01
   4.927253415780000E+01   5.011478061000000E+01   5.097142408990000E+01
   5.184271069450000E+01   5.272889072760000E+01   5.363021877170000E+01
   5.454695376070000E+01   5.547935905500000E+01   5.642770251650000E+01
   5.739225658590000E+01   5.837329836110000E+01   5.937110967620000E+01
   6.038597718320000E+01   6.141819243380000E+01   6.246805196360000E+01
   6.353585737690000E+01   6.462191543340001E+01   6.572653813670000E+01
   6.685004282350000E+01   6.799275225500000E+01   6.915499470940000E+01
   7.033710407650000E+01   7.153941995340000E+01   7.276228774240001E+01
   7.400605874950000E+01   7.527109028610001E+01   7.655774577139999E+01
   7.786639483659999E+01   7.919741343110000E+01   8.055118393090000E+01
   8.192809524810001E+01   8.332854294260000E+01   8.475292933599999E+01
   8.620166362680000E+01   8.767516200850000E+01   8.917384778860000E+01
   9.069815151050000E+01   9.224851107720001E+01   9.382537187699999E+01
   9.542918691150000E+01   9.706041692570000E+01   9.871953054040000E+01
   1.004070043870000E+02   1.021233232440000E+02   1.038689801760000E+02
   1.056444766770000E+02   1.074503228140000E+02   1.092870373690000E+02
   1.111551479970000E+02   1.130551913680000E+02   1.149877133290000E+02
   1.169532690570000E+02   1.189524232160000E+02   1.209857501250000E+02
   1.230538339210000E+02   1.251572687220000E+02   1.272966588060000E+02
   1.294726187770000E+02   1.316857737480000E+02   1.339367595140000E+02
   1.362262227400000E+02   1.385548211450000E+02   1.409232236890000E+02
   1.433321107700000E+02   1.457821744140000E+02   1.482741184760000E+02
   1.508086588440000E+02   1.533865236430000E+02   1.560084534420000E+02
   1.586752014730000E+02   1.613875338390000E+02   1.641462297410000E+02
   1.669520817000000E+02   1.698058957820000E+02   1.727084918340000E+02
   1.756607037130000E+02   1.786633795350000E+02   1.817173819090000E+02
   1.848235881920000E+02   1.879828907360000E+02   1.911961971480000E+02
   1.944644305480000E+02   1.977885298380000E+02   2.011694499650000E+02
   2.046081622040000E+02
    </PP_R>
    <PP_RAB>
   1.235669081090000E-06   1.256791119510000E-06   1.278274209710000E-06
   1.300124523350000E-06   1.322348337600000E-06   1.344952036950000E-06
   1.367942114980000E-06   1.391325176320000E-06   1.415107938460000E-06
   1.439297233720000E-06   1.463900011230000E-06   1.488923338880000E-06
   1.514374405400000E-06   1.540260522380000E-06   1.566589126400000E-06
   1.593367781160000E-06   1.620604179660000E-06   1.648306146370000E-06
   1.676481639540000E-06   1.705138753450000E-06   1.734285720730000E-06
   1.763930914730000E-06   1.794082851950000E-06   1.824750194460000E-06
   1.855941752390000E-06   1.887666486470000E-06   1.919933510600000E-06
   1.952752094480000E-06   1.986131666250000E-06   2.020081815210000E-06
   2.054612294590000E-06   2.089733024320000E-06   2.125454093910000E-06
   2.161785765330000E-06   2.198738475970000E-06   2.236322841630000E-06
   2.274549659560000E-06   2.313429911600000E-06   2.352974767290000E-06
   2.393195587090000E-06   2.434103925670000E-06   2.475711535220000E-06
   2.518030368770000E-06   2.561072583730000E-06   2.604850545280000E-06
   2.649376829990000E-06   2.694664229390000E-06   2.740725753680000E-06
   2.787574635450000E-06   2.835224333460000E-06   2.883688536570000E-06
   2.932981167580000E-06   2.983116387340000E-06   3.034108598700000E-06
   3.085972450750000E-06   3.138722842970000E-06   3.192374929530000E-06
   3.246944123630000E-06   3.302446101940000E-06   3.358896809120000E-06
   3.416312462350000E-06   3.474709556040000E-06   3.534104866550000E-06
   3.594515456990000E-06   3.655958682180000E-06   3.718452193540000E-06
   3.782013944270000E-06   3.846662194420000E-06   3.912415516180000E-06
   3.979292799210000E-06   4.047313256050000E-06   4.116496427680000E-06
   4.186862189070000E-06   4.258430754950000E-06   4.331222685590000E-06
   4.405258892680000E-06   4.480560645410000E-06   4.557149576520000E-06
   4.635047688510000E-06   4.714277360010000E-06   4.794861352170000E-06
   4.876822815210000E-06   4.960185295070000E-06   5.044972740190000E-06
   5.131209508350000E-06   5.218920373710000E-06   5.308130533910000E-06
   5.398865617280000E-06   5.491151690280000E-06   5.585015264900000E-06
   5.680483306330000E-06   5.777583240690000E-06   5.876342962920000E-06
   5.976790844770000E-06   6.078955742970000E-06   6.182867007520000E-06
   6.288554490120000E-06   6.396048552740000E-06   6.505380076330000E-06
   6.616580469740000E-06   6.729681678680000E-06   6.844716194950000E-06
   6.961717065720000E-06   7.080717903090000E-06   7.201752893700000E-06
   7.324856808550000E-06   7.450065013020000E-06   7.577413477010000E-06
   7.706938785260000E-06   7.838678147889999E-06   7.972669411060000E-06
   8.108951067870000E-06   8.247562269419999E-06   8.388542836000000E-06
   8.531933268620000E-06   8.677774760570000E-06   8.826109209279999E-06
   8.976979228369999E-06   9.130428159890000E-06   9.286500086730001E-06
   9.445239845350000E-06   9.606693038599999E-06   9.770906048859999E-06
   9.937926051360000E-06   1.010780102770000E-05   1.028057977970000E-05
   1.045631194330000E-05   1.063504800300000E-05   1.081683930620000E-05
   1.100173807800000E-05   1.118979743630000E-05   1.138107140680000E-05
   1.157561493890000E-05   1.177348392120000E-05   1.197473519760000E-05
   1.217942658370000E-05   1.238761688340000E-05   1.259936590570000E-05
   1.281473448200000E-05   1.303378448360000E-05   1.325657883920000E-05
   1.348318155340000E-05   1.371365772470000E-05   1.394807356460000E-05
   1.418649641600000E-05   1.442899477340000E-05   1.467563830180000E-05
   1.492649785700000E-05   1.518164550620000E-05   1.544115454850000E-05
   1.570509953560000E-05   1.597355629390000E-05   1.624660194580000E-05
   1.652431493210000E-05   1.680677503430000E-05   1.709406339780000E-05
   1.738626255480000E-05   1.768345644870000E-05   1.798573045740000E-05
   1.829317141850000E-05   1.860586765370000E-05   1.892390899460000E-05
   1.924738680840000E-05   1.957639402400000E-05   1.991102515880000E-05
   2.025137634570000E-05   2.059754536130000E-05   2.094963165300000E-05
   2.130773636850000E-05   2.167196238440000E-05   2.204241433570000E-05
   2.241919864600000E-05   2.280242355840000E-05   2.319219916570000E-05
   2.358863744310000E-05   2.399185227960000E-05   2.440195951090000E-05
   2.481907695310000E-05   2.524332443570000E-05   2.567482383700000E-05
   2.611369911840000E-05   2.656007636020000E-05   2.701408379800000E-05
   2.747585185930000E-05   2.794551320110000E-05   2.842320274820000E-05
   2.890905773140000E-05   2.940321772740000E-05   2.990582469890000E-05
   3.041702303520000E-05   3.093695959360000E-05   3.146578374180000E-05
   3.200364740080000E-05   3.255070508830000E-05   3.310711396360000E-05
   3.367303387210000E-05   3.424862739160000E-05   3.483405987900000E-05
   3.542949951780000E-05   3.603511736610000E-05   3.665108740640000E-05
   3.727758659490000E-05   3.791479491260000E-05   3.856289541720000E-05
   3.922207429550000E-05   3.989252091670000E-05   4.057442788720000E-05
   4.126799110570000E-05   4.197340981950000E-05   4.269088668170000E-05
   4.342062780960000E-05   4.416284284360000E-05   4.491774500770000E-05
   4.568555117080000E-05   4.646648190870000E-05   4.726076156770000E-05
   4.806861832890000E-05   4.889028427400000E-05   4.972599545170000E-05
   5.057599194570000E-05   5.144051794350000E-05   5.231982180660000E-05
   5.321415614220000E-05   5.412377787500000E-05   5.504894832190000E-05
   5.598993326640000E-05   5.694700303530000E-05   5.792043257620000E-05
   5.891050153650000E-05   5.991749434400000E-05   6.094170028810000E-05
   6.198341360350001E-05   6.304293355420001E-05   6.412056451970000E-05
   6.521661608260000E-05   6.633140311740000E-05   6.746524588070000E-05
   6.861847010359999E-05   6.979140708510000E-05   7.098439378740000E-05
   7.219777293240000E-05   7.343189310050000E-05   7.468710883050000E-05
   7.596378072160000E-05   7.726227553700000E-05   7.858296630899999E-05
   7.992623244660001E-05   8.129245984420000E-05   8.268204099230000E-05
   8.409537509090000E-05   8.553286816350000E-05   8.699493317390000E-05
   8.848199014520000E-05   8.999446628010000E-05   9.153279608360001E-05
   9.309742148819999E-05   9.468879198060000E-05   9.630736473050000E-05
   9.795360472270000E-05   9.962798489010000E-05   1.013309862500000E-04
   1.030630980410000E-04   1.048248178650000E-04   1.066166518320000E-04
   1.084391146990000E-04   1.102927300260000E-04   1.121780303200000E-04
   1.140955571910000E-04   1.160458615080000E-04   1.180295035550000E-04
   1.200470531950000E-04   1.220990900300000E-04   1.241862035710000E-04
   1.263089934050000E-04   1.284680693690000E-04   1.306640517230000E-04
   1.328975713300000E-04   1.351692698380000E-04   1.374797998620000E-04
   1.398298251720000E-04   1.422200208850000E-04   1.446510736580000E-04
   1.471236818850000E-04   1.496385558990000E-04   1.521964181750000E-04
   1.547980035360000E-04   1.574440593680000E-04   1.601353458320000E-04
   1.628726360820000E-04   1.656567164890000E-04   1.684883868640000E-04
   1.713684606930000E-04   1.742977653640000E-04   1.772771424110000E-04
   1.803074477500000E-04   1.833895519300000E-04   1.865243403790000E-04
   1.897127136620000E-04   1.929555877370000E-04   1.962538942170000E-04