<UPF version="2.0.1">
  <PP_INFO>
    Generated by new atomic code, or converted to UPF format
    Author: 
    Generation date: 
    Pseudopotential type: US
    Element: Si
    Functional: SLA  PZ   NOGX NOGC
    Suggested minimum cutoff for wavefunctions:   0. Ry
    Suggested minimum cutoff for charge density:   0. Ry
    The Pseudo was generated with a Non-Relativistic Calculation
    L component and cutoff radius for Local Potential:  0   0.0000
    Valence configuration: 
    nl pn  l   occ       Rcut    Rcut US       E pseu
    3S  1  0  2.00      0.000      0.000     0.000000
    3P  2  1  2.00      0.000      0.000     0.000000
    Generation configuration: not available.
  </PP_INFO>
    <!-- END OF HUMAN READABLE SECTION -->
  <PP_HEADER generated="Generated by new atomic code, or converted to UPF format" author="" date="" comment="" element="Si" pseudo_type="US" relativistic="no" is_ultrasoft="true" is_paw="false" is_coulomb="false" has_so="false" has_wfc="false" has_gipaw="false" paw_as_gipaw="false" core_correction="true" functional="SLA  PZ   NOGX NOGC" z_valence="4.0000000000000000" total_psenergy="-9.1923180820300008" wfc_cutoff="0.0000000000000000" rho_cutoff="0.0000000000000000" l_max="2" l_max_rho="0" l_local="0" mesh_size="899" number_of_wfc="2" number_of_proj="6"/>
  <PP_MESH>
    <PP_R>
   0.000000000000000E+00   1.094670684740000E-06   2.207738766680000E-06
   3.339513438540000E-06   4.490309089450000E-06   5.660445392290000E-06
   6.850247392430000E-06   8.060045598070000E-06   9.290176072070001E-06
   1.054098052520000E-05   1.181280641130000E-05   1.310600702330000E-05
   1.442094159220000E-05   1.575797538580000E-05   1.711747981110000E-05
   1.849983251690000E-05   1.990541749900000E-05   2.133462520670000E-05
   2.278785265140000E-05   2.426550351650000E-05   2.576798827040000E-05
   2.729572427940000E-05   2.884913592450000E-05   3.042865471890000E-05
   3.203471942810000E-05   3.366777619140000E-05   3.532827864620000E-05
   3.701668805380000E-05   3.873347342780000E-05   4.047911166400000E-05
   4.225408767310000E-05   4.405889451540000E-05   4.589403353780000E-05
   4.776001451300000E-05   4.965735578090000E-05   5.158658439300000E-05
   5.354823625850000E-05   5.554285629340000E-05   5.757099857160000E-05
   5.963322647900000E-05   6.173011287000000E-05   6.386224022640000E-05
   6.603020081960001E-05   6.823459687480000E-05   7.047604073840001E-05
   7.275515504810000E-05   7.507257290590000E-05   7.742893805380001E-05
   7.982490505290000E-05   8.226113946510000E-05   8.473831803760000E-05
   8.725712889170000E-05   8.981827171310000E-05   9.242245794700000E-05
   9.507041099510000E-05   9.776286641700000E-05   1.005005721340000E-04
   1.032842886380000E-04   1.061147892020000E-04   1.089928600930000E-04
   1.119193007940000E-04   1.148949242240000E-04   1.179205569650000E-04
   1.209970394900000E-04   1.241252263960000E-04   1.273059866450000E-04
   1.305402038010000E-04   1.338287762800000E-04   1.371726175940000E-04
   1.405726566100000E-04   1.440298378050000E-04   1.475451215290000E-04
   1.511194842730000E-04   1.547539189380000E-04   1.584494351130000E-04
   1.622070593540000E-04   1.660278354690000E-04   1.699128248100000E-04
   1.738631065650000E-04   1.778797780610000E-04   1.819639550650000E-04
   1.861167720970000E-04   1.903393827440000E-04   1.946329599810000E-04
   1.989986964950000E-04   2.034378050190000E-04   2.079515186680000E-04
   2.125410912800000E-04   2.172077977660000E-04   2.219529344620000E-04
   2.267778194940000E-04   2.316837931370000E-04   2.366722181940000E-04
   2.417444803710000E-04   2.469019886620000E-04   2.521461757410000E-04
   2.574784983610000E-04   2.629004377570000E-04   2.684135000570000E-04
   2.740192167040000E-04   2.797191448770000E-04   2.855148679260000E-04
   2.914079958110000E-04   2.974001655510000E-04   3.034930416750000E-04
   3.096883166880000E-04   3.159877115390000E-04   3.223929761020000E-04
   3.289058896580000E-04   3.355282613900000E-04   3.422619308890000E-04
   3.491087686630000E-04   3.560706766550000E-04   3.631495887730000E-04
   3.703474714260000E-04   3.776663240730000E-04   3.851081797760000E-04
   3.926751057640000E-04   4.003692040110000E-04   4.081926118150000E-04
   4.161475023950000E-04   4.242360854940000E-04   4.324606079940000E-04
   4.408233545360000E-04   4.493266481590000E-04   4.579728509440000E-04
   4.667643646690000E-04   4.757036314790000E-04   4.847931345610000E-04
   4.940353988340000E-04   5.034329916540000E-04   5.129885235240000E-04
   5.227046488190000E-04   5.325840665260000E-04   5.426295209910000E-04
   5.528438026829999E-04   5.632297489680000E-04   5.737902448970001E-04
   5.845282240100000E-04   5.954466691480000E-04   6.065486132810000E-04
   6.178371403560000E-04   6.293153861470000E-04   6.409865391280000E-04
   6.528538413630000E-04   6.649205893990000E-04   6.771901351900000E-04
   6.896658870210000E-04   7.023513104590000E-04   7.152499293150000E-04
   7.283653266210000E-04   7.417011456260000E-04   7.552610908120000E-04
   7.690489289170000E-04   7.830684899850000E-04   7.973236684270000E-04
   8.118184241080000E-04   8.265567834420000E-04   8.415428405120000E-04
   8.567807582090001E-04   8.722747693850000E-04   8.880291780310000E-04
   9.040483604750000E-04   9.203367665910000E-04   9.368989210410000E-04
   9.537394245320000E-04   9.708629550880000E-04   9.882742693550000E-04
   1.005978203920000E-03   1.023979676660000E-03   1.042283688100000E-03
   1.060895322810000E-03   1.079819750790000E-03   1.099062228970000E-03
   1.118628102590000E-03   1.138522806740000E-03   1.158751867870000E-03
   1.179320905280000E-03   1.200235632730000E-03   1.221501860000000E-03
   1.243125494510000E-03   1.265112542970000E-03   1.287469113030000E-03
   1.310201414990000E-03   1.333315763530000E-03   1.356818579440000E-03
   1.380716391450000E-03   1.405015837980000E-03   1.429723669030000E-03
   1.454846748060000E-03   1.480392053850000E-03   1.506366682500000E-03
   1.532777849330000E-03   1.559632890960000E-03   1.586939267290000E-03
   1.614704563600000E-03   1.642936492660000E-03   1.671642896840000E-03
   1.700831750340000E-03   1.730511161350000E-03   1.760689374350000E-03
   1.791374772370000E-03   1.822575879330000E-03   1.854301362390000E-03
   1.886560034410000E-03   1.919360856330000E-03   1.952712939690000E-03
   1.986625549190000E-03   2.021108105210000E-03   2.056170186460000E-03
   2.091821532630000E-03   2.128072047100000E-03   2.164931799690000E-03
   2.202411029470000E-03   2.240520147560000E-03   2.279269740080000E-03
   2.318670571060000E-03   2.358733585410000E-03   2.399469912030000E-03
   2.440890866810000E-03   2.483007955840000E-03   2.525832878580000E-03
   2.569377531120000E-03   2.613654009480000E-03   2.658674612960000E-03
   2.704451847580000E-03   2.750998429530000E-03   2.798327288720000E-03
   2.846451572340000E-03   2.895384648580000E-03   2.945140110270000E-03
   2.995731778680000E-03   3.047173707380000E-03   3.099480186140000E-03
   3.152665744860000E-03   3.206745157650000E-03   3.261733446920000E-03
   3.317645887540000E-03   3.374498011120000E-03   3.432305610260000E-03
   3.491084743020000E-03   3.550851737300000E-03   3.611623195440000E-03
   3.673415998780000E-03   3.736247312380000E-03   3.800134589800000E-03
   3.865095577920000E-03   3.931148321860000E-03   3.998311170040000E-03
   4.066602779230000E-03   4.136042119780000E-03   4.206648480820000E-03
   4.278441475690000E-03   4.351441047350000E-03   4.425667473940000E-03
   4.501141374370000E-03   4.577883714110000E-03   4.655915810960000E-03
   4.735259341010000E-03   4.815936344650000E-03   4.897969232660000E-03
   4.981380792490000E-03   5.066194194550000E-03   5.152432998670000E-03
   5.240121160630000E-03   5.329283038800000E-03   5.419943400960000E-03
   5.512127431110000E-03   5.605860736540000E-03   5.701169354860000E-03
   5.798079761310000E-03   5.896618876070000E-03   5.996814071750000E-03
   6.098693180990000E-03   6.202284504200000E-03   6.307616817410000E-03
   6.414719380280000E-03   6.523621944200000E-03   6.634354760590000E-03
   6.746948589290000E-03   6.861434707060000E-03   6.977844916360000E-03
   7.096211554090000E-03   7.216567500640000E-03   7.338946189000000E-03
   7.463381614020000E-03   7.589908341910000E-03   7.718561519790000E-03
   7.849376885480000E-03   7.982390777430000E-03   8.117640144800001E-03
   8.255162557710000E-03   8.394996217730001E-03   8.537179968440001E-03
   8.681753306240001E-03   8.828756391330000E-03   8.978230058819999E-03
   9.130215830160000E-03   9.284755924580000E-03   9.441893270889999E-03
   9.601671519360000E-03   9.764135053860000E-03   9.929329004200000E-03
   1.009729925860000E-02   1.026809247670000E-02   1.044175610200000E-02
   1.061833837550000E-02   1.079788834910000E-02   1.098045589880000E-02
   1.116609173910000E-02   1.135484743670000E-02   1.154677542490000E-02
   1.174192901830000E-02   1.194036242740000E-02   1.214213077400000E-02
   1.234729010610000E-02   1.255589741360000E-02   1.276801064460000E-02
   1.298368872050000E-02   1.320299155350000E-02   1.342598006230000E-02
   1.365271618970000E-02   1.388326291930000E-02   1.411768429340000E-02
   1.435604543070000E-02   1.459841254390000E-02   1.484485295890000E-02
   1.509543513290000E-02   1.535022867380000E-02   1.560930435910000E-02
   1.587273415590000E-02   1.614059124100000E-02   1.641295002070000E-02
   1.668988615200000E-02   1.697147656350000E-02   1.725779947640000E-02
   1.754893442690000E-02   1.784496228750000E-02   1.814596529010000E-02
   1.845202704860000E-02   1.876323258220000E-02   1.907966833870000E-02
   1.940142221920000E-02   1.972858360160000E-02   2.006124336640000E-02
   2.039949392100000E-02   2.074342922630000E-02   2.109314482190000E-02
   2.144873785330000E-02   2.181030709870000E-02   2.217795299640000E-02
   2.255177767240000E-02   2.293188496940000E-02   2.331838047530000E-02
   2.371137155230000E-02   2.411096736720000E-02   2.451727892140000E-02
   2.493041908180000E-02   2.535050261230000E-02   2.577764620530000E-02
   2.621196851470000E-02   2.665359018830000E-02   2.710263390170000E-02
   2.755922439210000E-02   2.802348849310000E-02   2.849555516990000E-02
   2.897555555540000E-02   2.946362298580000E-02   2.995989303880000E-02
   3.046450357020000E-02   3.097759475300000E-02   3.149930911560000E-02
   3.202979158230000E-02   3.256918951250000E-02   3.311765274250000E-02
   3.367533362680000E-02   3.424238708030000E-02   3.481897062150000E-02
   3.540524441610000E-02   3.600137132190000E-02   3.660751693340000E-02
   3.722384962820000E-02   3.785054061400000E-02   3.848776397560000E-02
   3.913569672350000E-02   3.979451884320000E-02   4.046441334510000E-02
   4.114556631540000E-02   4.183816696750000E-02   4.254240769500000E-02
   4.325848412480000E-02   4.398659517170000E-02   4.472694309340000E-02
   4.547973354690000E-02   4.624517564540000E-02   4.702348201680000E-02
   4.781486886210000E-02   4.861955601630000E-02   4.943776700860000E-02
   5.026972912520000E-02   5.111567347200000E-02   5.197583503900000E-02
   5.285045276540000E-02   5.373976960640000E-02   5.464403259990000E-02
   5.556349293610000E-02   5.649840602650000E-02   5.744903157520000E-02
   5.841563365090000E-02   5.939848076040000E-02   6.039784592320000E-02
   6.141400674710000E-02   6.244724550550000E-02   6.349784921590000E-02
   6.456610971930000E-02   6.565232376169999E-02   6.675679307610000E-02
   6.787982446680001E-02   6.902172989400000E-02   7.018282656110000E-02
   7.136343700250000E-02   7.256388917290001E-02   7.378451653910000E-02
   7.502565817220000E-02   7.628765884150000E-02   7.757086911110000E-02
   7.887564543639999E-02   8.020235026380000E-02   8.155135213070000E-02
   8.292302576879999E-02   8.431775220710000E-02   8.573591887890000E-02
   8.717791972820001E-02   8.864415532019999E-02   9.013503295200000E-02
   9.165096676590000E-02   9.319237786420000E-02   9.475969442680000E-02
   9.635335182929999E-02   9.797379276470000E-02   9.962146736580001E-02
   1.012968333310000E-01   1.030003560490000E-01   1.047325087340000E-01
   1.064937725480000E-01   1.082846367440000E-01   1.101055987960000E-01
   1.119571645370000E-01   1.138398483040000E-01   1.157541730770000E-01
   1.177006706240000E-01   1.196798816520000E-01   1.216923559540000E-01
   1.237386525640000E-01   1.258193399120000E-01   1.279349959780000E-01
   1.300862084590000E-01   1.322735749280000E-01   1.344977030000000E-01
   1.367592105030000E-01   1.390587256490000E-01   1.413968872060000E-01
   1.437743446790000E-01   1.461917584870000E-01   1.486498001510000E-01
   1.511491524750000E-01   1.536905097400000E-01   1.562745778940000E-01
   1.589020747520000E-01   1.615737301900000E-01   1.642902863520000E-01
   1.670524978540000E-01   1.698611319960000E-01   1.727169689710000E-01
   1.756208020850000E-01   1.785734379780000E-01   1.815756968460000E-01
   1.846284126680000E-01   1.877324334410000E-01   1.908886214120000E-01
   1.940978533210000E-01   1.973610206420000E-01   2.006790298310000E-01
   2.040528025780000E-01   2.074832760650000E-01   2.109714032230000E-01
   2.145181529990000E-01   2.181245106220000E-01   2.217914778840000E-01
   2.255200734090000E-01   2.293113329420000E-01   2.331663096350000E-01
   2.370860743410000E-01   2.410717159070000E-01   2.451243414820000E-01
   2.492450768210000E-01   2.534350666000000E-01   2.576954747310000E-01
   2.620274846900000E-01   2.664322998380000E-01   2.709111437660000E-01
   2.754652606240000E-01   2.800959154740000E-01   2.848043946400000E-01
   2.895920060630000E-01   2.944600796650000E-01   2.994099677200000E-01
   3.044430452290000E-01   3.095607103010000E-01   3.147643845440000E-01
   3.200555134550000E-01   3.254355668270000E-01   3.309060391530000E-01
   3.364684500450000E-01   3.421243446510000E-01   3.478752940910000E-01
   3.537228958880000E-01   3.596687744120000E-01   3.657145813350000E-01
   3.718619960870000E-01   3.781127263220000E-01   3.844685083940000E-01
   3.909311078400000E-01   3.975023198670000E-01   4.041839698550000E-01
   4.109779138600000E-01   4.178860391320000E-01   4.249102646410000E-01
   4.320525416030000E-01   4.393148540320000E-01   4.466992192840000E-01
   4.542076886170000E-01   4.618423477660000E-01   4.696053175200000E-01
   4.774987543080000E-01   4.855248508030000E-01   4.936858365270000E-01
   5.019839784730000E-01   5.104215817350000E-01   5.190009901440000E-01
   5.277245869260000E-01   5.365947953580000E-01   5.456140794430000E-01
   5.547849445960000E-01   5.641099383390000E-01   5.735916510070000E-01
   5.832327164720000E-01   5.930358128670000E-01   6.030036633400000E-01
   6.131390368010000E-01   6.234447486970000E-01   6.339236617920000E-01
   6.445786869620000E-01   6.554127840060000E-01   6.664289624640000E-01
   6.776302824570000E-01   6.890198555340000E-01   7.006008455400000E-01
   7.123764694890000E-01   7.243499984660000E-01   7.365247585260000E-01
   7.489041316260000E-01   7.614915565600000E-01   7.742905299170000E-01
   7.873046070480000E-01   8.005374030600000E-01   8.139925938130000E-01
   8.276739169470000E-01   8.415851729179999E-01   8.557302260530000E-01
   8.701130056240000E-01   8.847375069410000E-01   8.996077924580000E-01
   9.147279929070000E-01   9.301023084400000E-01   9.457350097990000E-01
   9.616304395030000E-01   9.777930130490000E-01   9.942272201460000E-01
   1.010937625960000E+00   1.027928872370000E+00   1.045205679280000E+00
   1.062772845920000E+00   1.080635252170000E+00   1.098797859910000E+00
   1.117265714440000E+00   1.136043945840000E+00   1.155137770400000E+00
   1.174552492080000E+00   1.194293503990000E+00   1.214366289870000E+00
   1.234776425610000E+00   1.255529580850000E+00   1.276631520460000E+00
   1.298088106250000E+00   1.319905298500000E+00   1.342089157700000E+00
   1.364645846160000E+00   1.387581629780000E+00   1.410902879760000E+00
   1.434616074370000E+00   1.458727800770000E+00   1.483244756800000E+00
   1.508173752900000E+00   1.533521713940000E+00   1.559295681190000E+00
   1.585502814250000E+00   1.612150393040000E+00   1.639245819850000E+00
   1.666796621360000E+00   1.694810450730000E+00   1.723295089780000E+00
   1.752258451080000E+00   1.781708580200000E+00   1.811653657920000E+00
   1.842102002520000E+00   1.873062072050000E+00   1.904542466730000E+00
   1.936551931340000E+00   1.969099357570000E+00   2.002193786610000E+00
   2.035844411560000E+00   2.070060580020000E+00   2.104851796720000E+00
   2.140227726100000E+00   2.176198195040000E+00   2.212773195560000E+00
   2.249962887630000E+00   2.287777601940000E+00   2.326227842840000E+00
   2.365324291190000E+00   2.405077807370000E+00   2.445499434280000E+00
   2.486600400400000E+00   2.528392122940000E+00   2.570886210980000E+00
   2.614094468690000E+00   2.658028898670000E+00   2.702701705180000E+00
   2.748125297650000E+00   2.794312294010000E+00   2.841275524300000E+00
   2.889028034150000E+00   2.937583088460000E+00   2.986954175050000E+00
   3.037155008440000E+00   3.088199533610000E+00   3.140101929940000E+00
   3.192876615100000E+00   3.246538249040000E+00   3.301101738140000E+00
   3.356582239260000E+00   3.412995164010000E+00   3.470356183010000E+00
   3.528681230250000E+00   3.587986507510000E+00   3.648288488850000E+00
   3.709603925200000E+00   3.771949849040000E+00   3.835343579080000E+00
   3.899802725080000E+00   3.965345192790000E+00   4.031989188870000E+00
   4.099753225960000E+00   4.168656127850000E+00   4.238717034670000E+00
   4.309955408240000E+00   4.382391037450000E+00   4.456044043780000E+00
   4.530934886870000E+00   4.607084370210000E+00   4.684513646920000E+00
   4.763244225640000E+00   4.843297976480000E+00   4.924697137100000E+00
   5.007464318910000E+00   5.091622513320000E+00   5.177195098150000E+00
   5.264205844120000E+00   5.352678921420000E+00   5.442638906500000E+00
   5.534110788810000E+00   5.627119977790000E+00   5.721692309930000E+00
   5.817854055930000E+00   5.915631928000000E+00   6.015053087300000E+00
   6.116145151450000E+00   6.218936202220000E+00   6.323454793360000E+00
   6.429729958470000E+00   6.537791219120000E+00   6.647668593010000E+00
   6.759392602350000E+00   6.872994282310000E+00   6.988505189630000E+00
   7.105957411430000E+00   7.225383574060000E+00   7.346816852250000E+00
   7.470290978220000E+00   7.595840251160000E+00   7.723499546650000E+00
   7.853304326440000E+00   7.985290648240000E+00   8.119495175779999E+00
   8.255955188940000E+00   8.394708594170000E+00   8.535793934979999E+00
   8.679250402630000E+00   8.825117847070000E+00   8.973436787970000E+00
   9.124248425999999E+00   9.277594654250001E+00   9.433518069870001E+00
   9.592061985930000E+00   9.753270443420000E+00   9.917188223509999E+00
   1.008386086000000E+01   1.025333465180000E+01   1.042565667620000E+01
   1.060087480150000E+01   1.077903770040000E+01   1.096019486400000E+01
   1.114439661460000E+01   1.133169412070000E+01   1.152213941060000E+01
   1.171578538700000E+01   1.191268584160000E+01   1.211289547030000E+01
   1.231646988820000E+01   1.252346564500000E+01   1.273394024090000E+01
   1.294795214240000E+01   1.316556079860000E+01   1.338682665770000E+01
   1.361181118400000E+01   1.384057687460000E+01   1.407318727700000E+01
   1.430970700660000E+01   1.455020176500000E+01   1.479473835770000E+01
   1.504338471320000E+01   1.529620990150000E+01   1.555328415340000E+01
   1.581467888020000E+01   1.608046669300000E+01   1.635072142370000E+01
   1.662551814470000E+01   1.690493319010000E+01   1.718904417720000E+01
   1.747793002730000E+01   1.777167098850000E+01   1.807034865730000E+01
   1.837404600170000E+01   1.868284738400000E+01   1.899683858440000E+01
   1.931610682460000E+01   1.964074079230000E+01   1.997083066580000E+01
   2.030646813870000E+01   2.064774644590000E+01   2.099476038910000E+01
   2.134760636320000E+01   2.170638238340000E+01   2.207118811190000E+01
   2.244212488600000E+01   2.281929574610000E+01   2.320280546420000E+01
   2.359276057340000E+01   2.398926939700000E+01   2.439244207890000E+01
   2.480239061410000E+01   2.521922887980000E+01   2.564307266710000E+01
   2.607403971310000E+01   2.651224973370000E+01   2.695782445670000E+01
   2.741088765570000E+01   2.787156518440000E+01   2.833998501200000E+01
   2.881627725790000E+01   2.930057422870000E+01   2.979301045430000E+01
   3.029372272590000E+01   3.080285013330000E+01   3.132053410420000E+01
   3.184691844290000E+01   3.238214937070000E+01   3.292637556630000E+01
   3.347974820720000E+01   3.404242101150000E+01   3.461455028080000E+01
   3.519629494370000E+01   3.578781659950000E+01   3.638927956380000E+01
   3.700085091330000E+01   3.762270053300000E+01   3.825500116290000E+01
   3.889792844600000E+01   3.955166097750000E+01   4.021638035390000E+01
   4.089227122370000E+01   4.157952133880000E+01   4.227832160640000E+01
   4.298886614220000E+01   4.371135232410000E+01   4.444598084760000E+01
   4.519295578070000E+01   4.595248462140000E+01   4.672477835470000E+01
   4.751005151160000E+01   4.830852222860000E+01   4.912041230840000E+01
   4.994594728100000E+01   5.078535646710000E+01   5.163887304140000E+01
   5.250673409710000E+01   5.338918071260000E+01   5.428645801730000E+01
   5.519881526090000E+01   5.612650588180000E+01   5.706978757780000E+01
   5.802892237750000E+01   5.900417671360000E+01   5.999582149630000E+01
   6.100413218890000E+01   6.202938888400000E+01   6.307187638190000E+01
   6.413188426920000E+01   6.520970699919999E+01   6.630564397409999E+01
   6.741999962780000E+01   6.855308351090000E+01   6.970521037600000E+01
   7.087670026590000E+01   7.206787860199999E+01   7.327907627470000E+01
   7.451062973560001E+01   7.576288109090000E+01   7.703617819620000E+01
   7.833087475329999E+01   7.964733040850000E+01   8.098591085240000E+01
   8.234698792150000E+01   8.373093970150001E+01   8.513815063240000E+01
   8.656901161499999E+01   8.802392012010000E+01   8.950328029820000E+01
   9.100750309220000E+01   9.253700635150000E+01   9.409221494790000E+01
   9.567356089370000E+01   9.728148346200000E+01   9.891642930819999E+01
   1.005788525940000E+02   1.022692151160000E+02   1.039879864280000E+02
   1.057356439790000E+02   1.075126732400000E+02   1.093195678420000E+02
   1.111568297110000E+02   1.130249692110000E+02   1.149245052800000E+02
   1.168559655800000E+02   1.188198866390000E+02   1.208168140050000E+02
   1.228473023920000E+02   1.249119158380000E+02   1.270112278600000E+02
   1.291458216120000E+02   1.313162900530000E+02   1.335232361040000E+02
   1.357672728180000E+02   1.380490235560000E+02   1.403691221500000E+02
   1.427282130870000E+02   1.451269516870000E+02   1.475660042790000E+02
   1.500460483960000E+02   1.525677729530000E+02   1.551318784460000E+02
   1.577390771430000E+02   1.603900932830000E+02   1.630856632760000E+02
   1.658265359090000E+02   1.686134725530000E+02   1.714472473750000E+02
   1.743286475530000E+02   1.772584734940000E+02   1.802375390580000E+02
   1.832666717820000E+02   1.863467131120000E+02   1.894785186330000E+02
   1.926629583130000E+02   1.959009167390000E+02   1.991932933630000E+02
   2.025410027570000E+02   2.059449748600000E+02
    </PP_R>
    <PP_RAB>
   1.085573768520000E-06   1.103818279930000E-06   1.122369414630000E-06
   1.141232325830000E-06   1.160412253340000E-06   1.179914525060000E-06
   1.199744558390000E-06   1.219907861820000E-06   1.240410036390000E-06
   1.261256777270000E-06   1.282453875370000E-06   1.304007218910000E-06
   1.325922795050000E-06   1.348206691610000E-06   1.370865098700000E-06
   1.393904310470000E-06   1.417330726830000E-06   1.441150855300000E-06
   1.465371312710000E-06   1.489998827130000E-06   1.515040239690000E-06
   1.540502506510000E-06   1.566392700590000E-06   1.592718013830000E-06
   1.619485758990000E-06   1.646703371710000E-06   1.674378412620000E-06
   1.702518569410000E-06   1.731131658980000E-06   1.760225629580000E-06
   1.789808563070000E-06   1.819888677110000E-06   1.850474327480000E-06
   1.881574010400000E-06   1.913196364870000E-06   1.945350175070000E-06
   1.978044372830000E-06   2.011288040070000E-06   2.045090411380000E-06
   2.079460876500000E-06   2.114408983020000E-06   2.149944438960000E-06
   2.186077115510000E-06   2.222817049760000E-06   2.260174447490000E-06
   2.298159685990000E-06   2.336783316950000E-06   2.376056069410000E-06
   2.415988852730000E-06   2.456592759600000E-06   2.497879069140000E-06
   2.539859250040000E-06   2.582544963740000E-06   2.625948067630000E-06
   2.670080618440000E-06   2.714954875470000E-06   2.760583304090000E-06
   2.806978579160000E-06   2.854153588540000E-06   2.902121436730000E-06
   2.950895448410000E-06   3.000489172250000E-06   3.050916384600000E-06
   3.102191093340000E-06   3.154327541780000E-06   3.207340212590000E-06
   3.261243831870000E-06   3.316053373180000E-06   3.371784061740000E-06
   3.428451378680000E-06   3.486071065260000E-06   3.544659127330000E-06
   3.604231839730000E-06   3.664805750820000E-06   3.726397687070000E-06
   3.789024757750000E-06   3.852704359670000E-06   3.917454182020000E-06
   3.983292211280000E-06   4.050236736200000E-06   4.118306352930000E-06
   4.187519970130000E-06   4.257896814250000E-06   4.329456434860000E-06
   4.402218710100000E-06   4.476203852170000E-06   4.551432412990000E-06
   4.627925289850000E-06   4.705703731280000E-06   4.784789342880000E-06
   4.865204093410000E-06   4.946970320800000E-06   5.030110738420000E-06
   5.114648441370000E-06   5.200606912890000E-06   5.288010030870000E-06
   5.376882074540000E-06   5.467247731130000E-06   5.559132102800000E-06
   5.652560713590000E-06   5.747559516470000E-06   5.844154900610000E-06
   5.942373698700000E-06   6.042243194360000E-06   6.143791129760000E-06
   6.247045713310000E-06   6.352035627510000E-06   6.458790036890000E-06
   6.567338596140000E-06   6.677711458350000E-06   6.789939283340000E-06
   6.904053246240000E-06   7.020085046100000E-06   7.138066914730000E-06
   7.258031625610000E-06   7.380012503070000E-06   7.504043431450000E-06
   7.630158864589999E-06   7.758393835370001E-06   7.888783965430000E-06
   8.021365475099999E-06   8.156175193430001E-06   8.293250568410000E-06
   8.432629677439999E-06   8.574351237830000E-06   8.718454617580000E-06
   8.864979846340000E-06   9.013967626500000E-06   9.165459344529999E-06
   9.319497082410000E-06   9.476123629410000E-06   9.635382493910001E-06
   9.797317915499999E-06   9.961974877290000E-06   1.012939911840000E-05
   1.029963714660000E-05   1.047273625130000E-05   1.064874451680000E-05
   1.082771083540000E-05   1.100968492100000E-05   1.119471732320000E-05
   1.138285944110000E-05   1.157416353760000E-05   1.176868275400000E-05
   1.196647112460000E-05   1.216758359180000E-05   1.237207602170000E-05
   1.258000521890000E-05   1.279142894280000E-05   1.300640592380000E-05
   1.322499587890000E-05   1.344725952900000E-05   1.367325861540000E-05
   1.390305591710000E-05   1.413671526830000E-05   1.437430157560000E-05
   1.461588083700000E-05   1.486152015920000E-05   1.511128777710000E-05
   1.536525307200000E-05   1.562348659160000E-05   1.588606006900000E-05
   1.615304644310000E-05   1.642451987840000E-05   1.670055578590000E-05
   1.698123084400000E-05   1.726662302000000E-05   1.755681159110000E-05
   1.785187716720000E-05   1.815190171290000E-05   1.845696857020000E-05
   1.876716248200000E-05   1.908256961510000E-05   1.940327758460000E-05
   1.972937547830000E-05   2.006095388090000E-05   2.039810489970000E-05
   2.074092218990000E-05   2.108950098070000E-05   2.144393810190000E-05
   2.180433201040000E-05   2.217078281800000E-05   2.254339231900000E-05
   2.292226401830000E-05   2.330750316060000E-05   2.369921675920000E-05
   2.409751362600000E-05   2.450250440140000E-05   2.491430158570000E-05
   2.533301956950000E-05   2.575877466610000E-05   2.619168514340000E-05
   2.663187125730000E-05   2.707945528450000E-05   2.753456155670000E-05
   2.799731649520000E-05   2.846784864620000E-05   2.894628871590000E-05
   2.943276960750000E-05   2.992742645780000E-05   3.043039667440000E-05
   3.094181997470000E-05   3.146183842400000E-05   3.199059647510000E-05
   3.252824100870000E-05   3.307492137400000E-05   3.363078943010000E-05
   3.419599958840000E-05   3.477070885540000E-05   3.535507687610000E-05
   3.594926597900000E-05   3.655344122010000E-05   3.716777043000000E-05
   3.779242425960000E-05   3.842757622780000E-05   3.907340276980000E-05
   3.973008328610000E-05   4.039780019210000E-05   4.107673896900000E-05
   4.176708821530000E-05   4.246903969910000E-05   4.318278841150000E-05
   4.390853262050000E-05   4.464647392650000E-05   4.539681731790000E-05
   4.615977122820000E-05   4.693554759410000E-05   4.772436191380000E-05
   4.852643330760000E-05   4.934198457820000E-05   5.017124227290000E-05
   5.101443674650000E-05   5.187180222490000E-05   5.274357687080000E-05
   5.363000284950000E-05   5.453132639600000E-05   5.544779788380000E-05
   5.637967189420000E-05   5.732720728710000E-05   5.829066727290000E-05
   5.927031948560000E-05   6.026643605690000E-05   6.127929369250000E-05
   6.230917374810000E-05   6.335636230820000E-05   6.442115026530000E-05
   6.550383340050000E-05   6.660471246620000E-05   6.772409326920000E-05
   6.886228675580001E-05   7.001960909810000E-05   7.119638178220000E-05
   7.239293169670000E-05   7.360959122440000E-05   7.484669833410000E-05
   7.610459667469999E-05   7.738363567030000E-05   7.868417061780001E-05
   8.000656278539999E-05   8.135117951269999E-05   8.271839431290000E-05
   8.410858697669999E-05   8.552214367780000E-05   8.695945707970000E-05
   8.842092644560000E-05   8.990695774850000E-05   9.141796378450000E-05
   9.295436428710000E-05   9.451658604410000E-05   9.610506301619999E-05
   9.772023645700000E-05   9.936255503630000E-05   1.010324749640000E-04
   1.027304601180000E-04   1.044569821720000E-04   1.062125207250000E-04