<UPF version="2.0.1">
  <PP_INFO>
    Generated by new atomic code, or converted to UPF format
    Author: 
    Generation date: 
    Pseudopotential type: US
    Element: Sn
    Functional:  SLA  PZ   NOGX NOGC
    Suggested minimum cutoff for wavefunctions:   0. Ry
    Suggested minimum cutoff for charge density:   0. Ry
    The Pseudo was generated with a Non-Relativistic Calculation
    L component and cutoff radius for Local Potential:  0   0.0000
    Valence configuration: 
    nl pn  l   occ       Rcut    Rcut US       E pseu
    4D  3  2 10.00      0.000      0.000     0.000000
    5S  1  0  2.00      0.000      0.000     0.000000
    5P  2  1  1.00      0.000      0.000     0.000000
    Generation configuration: not available.
  </PP_INFO>
    <!-- END OF HUMAN READABLE SECTION -->
  <PP_HEADER generated="Generated by new atomic code, or converted to UPF format" author="" date="" comment="" element="Sn" pseudo_type="US" relativistic="no" is_ultrasoft="true" is_paw="false" is_coulomb="false" has_so="false" has_wfc="false" has_gipaw="false" paw_as_gipaw="false" core_correction="true" functional=" SLA  PZ   NOGX NOGC" z_valence="14.000000000000000" total_psenergy="-158.05446251600000" wfc_cutoff="0.0000000000000000" rho_cutoff="0.0000000000000000" l_max="2" l_max_rho="0" l_local="0" mesh_size="891" number_of_wfc="3" number_of_proj="6"/>
  <PP_MESH>
    <PP_R>
   0.000000000000000E+00   1.144410227250000E-09   2.317791337340000E-09
   3.520876731650000E-09   4.754418377710000E-09   6.019187279220000E-09
   7.315973957900000E-09   8.645588947659999E-09   1.000886330110000E-08
   1.140664910920000E-08   1.283982003340000E-08   1.430927185230000E-08
   1.581592302110000E-08   1.736071524580000E-08   1.894461407190000E-08
   2.056860948770000E-08   2.223371654320000E-08   2.394097598440000E-08
   2.569145490420000E-08   2.748624740880000E-08   2.932647530200000E-08
   3.121328878600000E-08   3.314786718090000E-08   3.513141966090000E-08
   3.716518601110000E-08   3.925043740150000E-08   4.138847718220000E-08
   4.358064169770000E-08   4.582830112200000E-08   4.813286031560000E-08
   5.049575970300000E-08   5.291847617310000E-08   5.540252400260000E-08
   5.794945580230000E-08   6.056086348760000E-08   6.323837927310000E-08
   6.598367669340000E-08   6.879847164880001E-08   7.168452347770001E-08
   7.464363605650000E-08   7.767765892689999E-08   8.078848845200000E-08
   8.397806900140000E-08   8.724839416680001E-08   9.060150800800000E-08
   9.403950633010000E-08   9.756453799420000E-08   1.011788062600000E-07
   1.048845701620000E-07   1.086841459240000E-07   1.125799084040000E-07
   1.165742925820000E-07   1.206697950760000E-07   1.248689757090000E-07
   1.291744591060000E-07   1.335889363340000E-07   1.381151665850000E-07
   1.427559789010000E-07   1.475142739400000E-07   1.523930257910000E-07
   1.573952838330000E-07   1.625241746400000E-07   1.677829039370000E-07
   1.731747585990000E-07   1.787031087120000E-07   1.843714096750000E-07
   1.901832043590000E-07   1.961421253260000E-07   2.022518970960000E-07
   2.085163384750000E-07   2.149393649420000E-07   2.215249910980000E-07
   2.282773331740000E-07   2.352006116040000E-07   2.422991536610000E-07
   2.495773961660000E-07   2.570398882570000E-07   2.646912942360000E-07
   2.725363964780000E-07   2.805800984300000E-07   2.888274276650000E-07
   2.972835390350000E-07   3.059537178820000E-07   3.148433833530000E-07
   3.239580917760000E-07   3.333035401410000E-07   3.428855696590000E-07
   3.527101694080000E-07   3.627834800840000E-07   3.731117978340000E-07
   3.837015781920000E-07   3.945594401170000E-07   4.056921701250000E-07
   4.171067265340000E-07   4.288102438150000E-07   4.408100370470000E-07
   4.531136064900000E-07   4.657286422770000E-07   4.786630292150000E-07
   4.919248517180000E-07   5.055223988550000E-07   5.194641695370000E-07
   5.337588778250000E-07   5.484154583750000E-07   5.634430720280000E-07
   5.788511115330000E-07   5.946492074140000E-07   6.108472339970000E-07
   6.274553155750000E-07   6.444838327390000E-07   6.619434288690000E-07
   6.798450167780000E-07   6.981997855430000E-07   7.170192074910000E-07
   7.363150453750000E-07   7.560993597190000E-07   7.763845163660000E-07
   7.971831941990000E-07   8.185083930670000E-07   8.403734419150000E-07
   8.627920071100000E-07   8.857781009850000E-07   9.093460905960000E-07
   9.335107067060000E-07   9.582870529839999E-07   9.836906154540001E-07
   1.009737272170000E-06   1.036443303140000E-06   1.063825400500000E-06
   1.091900678960000E-06   1.120686686480000E-06   1.150201415240000E-06
   1.180463312920000E-06   1.211491294190000E-06   1.243304752550000E-06
   1.275923572430000E-06   1.309368141680000E-06   1.343659364220000E-06
   1.378818673200000E-06   1.414868044320000E-06   1.451830009610000E-06
   1.489727671520000E-06   1.528584717300000E-06   1.568425433870000E-06
   1.609274722990000E-06   1.651158116790000E-06   1.694101793750000E-06
   1.738132595070000E-06   1.783278041420000E-06   1.829566350200000E-06
   1.877026453090000E-06   1.925688014200000E-06   1.975581448600000E-06
   2.026737941310000E-06   2.079189466790000E-06   2.132968808960000E-06
   2.188109581660000E-06   2.244646249670000E-06   2.302614150240000E-06
   2.362049515200000E-06   2.422989493590000E-06   2.485472174880000E-06
   2.549536612780000E-06   2.615222849640000E-06   2.682571941500000E-06
   2.751625983740000E-06   2.822428137390000E-06   2.895022656080000E-06
   2.969454913770000E-06   3.045771433030000E-06   3.124019914180000E-06
   3.204249265050000E-06   3.286509631610000E-06   3.370852429270000E-06
   3.457330375010000E-06   3.545997520380000E-06   3.636909285210000E-06
   3.730122492330000E-06   3.825695403020000E-06   3.923687753470000E-06
   4.024160792070000E-06   4.127177317760000E-06   4.232801719210000E-06
   4.341100015120000E-06   4.452139895440000E-06   4.565990763710000E-06
   4.682723780430000E-06   4.802411907540000E-06   4.925129954020000E-06
   5.050954622630000E-06   5.179964557890000E-06   5.312240395220000E-06
   5.447864811300000E-06   5.586922575830000E-06   5.729500604420000E-06
   5.875688013000000E-06   6.025576173440000E-06   6.179258770720000E-06
   6.336831861480000E-06   6.498393934030000E-06   6.664045969910000E-06
   6.833891507050000E-06   7.008036704430000E-06   7.186590408460000E-06
   7.369664221040000E-06   7.557372569250000E-06   7.749832776920001E-06
   7.947165137930000E-06   8.149492991460000E-06   8.356942798980000E-06
   8.569644223370000E-06   8.787730209970000E-06   9.011337069600000E-06
   9.240604563830001E-06   9.475675992310000E-06   9.716698282330001E-06
   9.963822080670000E-06   1.021720184780000E-05   1.047699595420000E-05
   1.074336677970000E-05   1.101648081480000E-05   1.129650876460000E-05
   1.158362565570000E-05   1.187801094550000E-05   1.217984863450000E-05
   1.248932738080000E-05   1.280664061900000E-05   1.313198668000000E-05
   1.346556891570000E-05   1.380759582600000E-05   1.415828118870000E-05
   1.451784419360000E-05   1.488650957940000E-05   1.526450777380000E-05
   1.565207503810000E-05   1.604945361440000E-05   1.645689187720000E-05
   1.687464448870000E-05   1.730297255800000E-05   1.774214380400000E-05
   1.819243272300000E-05   1.865412076020000E-05   1.912749648570000E-05
   1.961285577480000E-05   2.011050199280000E-05   2.062074618480000E-05
   2.114390727000000E-05   2.168031224110000E-05   2.223029636880000E-05
   2.279420341090000E-05   2.337238582770000E-05   2.396520500210000E-05
   2.457303146530000E-05   2.519624512880000E-05   2.583523552120000E-05
   2.649040203240000E-05   2.716215416280000E-05   2.785091177940000E-05
   2.855710537800000E-05   2.928117635270000E-05   3.002357727140000E-05
   3.078477215880000E-05   3.156523678660000E-05   3.236545897040000E-05
   3.318593887530000E-05   3.402718932790000E-05   3.488973613710000E-05
   3.577411842270000E-05   3.668088895240000E-05   3.761061448740000E-05
   3.856387613640000E-05   3.954126971890000E-05   4.054340613780000E-05
   4.157091176090000E-05   4.262442881260000E-05   4.370461577550000E-05
   4.481214780160000E-05   4.594771713440000E-05   4.711203354170000E-05
   4.830582475920000E-05   4.952983694520000E-05   5.078483514720000E-05
   5.207160378000000E-05   5.339094711580000E-05   5.474368978720000E-05
   5.613067730240000E-05   5.755277657360000E-05   5.901087645930000E-05
   6.050588831940000E-05   6.203874658480000E-05   6.361040934209999E-05
   6.522185893140000E-05   6.687410256130000E-05   6.856817293780000E-05
   7.030512891010000E-05   7.208605613220000E-05   7.391206774150000E-05
   7.578430505480000E-05   7.770393828140000E-05   7.967216725440001E-05
   8.169022218110000E-05   8.375936441160000E-05   8.588088722690001E-05
   8.805611664800000E-05   9.028641226410000E-05   9.257316808250000E-05
   9.491781340010000E-05   9.732181369650000E-05   9.978667155010000E-05
   1.023139275770000E-04   1.049051613950000E-04   1.075619926100000E-04
   1.102860818270000E-04   1.130791316910000E-04   1.159428879490000E-04
   1.188791405410000E-04   1.218897247220000E-04   1.249765222040000E-04
   1.281414623370000E-04   1.313865233100000E-04   1.347137333940000E-04
   1.381251722010000E-04   1.416229719930000E-04   1.452093190080000E-04
   1.488864548300000E-04   1.526566777890000E-04   1.565223443960000E-04
   1.604858708200000E-04   1.645497343920000E-04   1.687164751610000E-04
   1.729886974740000E-04   1.773690716100000E-04   1.818603354460000E-04
   1.864652961660000E-04   1.911868320230000E-04   1.960278941280000E-04
   2.009915083050000E-04   2.060807769720000E-04   2.112988810890000E-04
   2.166490821410000E-04   2.221347241770000E-04   2.277592359020000E-04
   2.335261328200000E-04   2.394390194280000E-04   2.455015914730000E-04
   2.517176382610000E-04   2.580910450210000E-04   2.646257953430000E-04
   2.713259736560000E-04   2.781957677910000E-04   2.852394715920000E-04
   2.924614876040000E-04   2.998663298210000E-04   3.074586265120000E-04
   3.152431231090000E-04   3.232246851750000E-04   3.314083014470000E-04
   3.397990869510000E-04   3.484022862020000E-04   3.572232764780000E-04
   3.662675711870000E-04   3.755408233060000E-04   3.850488289200000E-04
   3.947975308420000E-04   4.047930223280000E-04   4.150415508860000E-04
   4.255495221790000E-04   4.363235040330000E-04   4.473702305350000E-04
   4.586966062500000E-04   4.703097105320000E-04   4.822168019480000E-04
   4.944253228190000E-04   5.069429038660000E-04   5.197773689870000E-04
   5.329367401390000E-04   5.464292423580000E-04   5.602633088960000E-04
   5.744475864970000E-04   5.889909407940000E-04   6.039024618580000E-04
   6.191914698750000E-04   6.348675209730000E-04   6.509404131940000E-04
   6.674201926179999E-04   6.843171596450000E-04   7.016418754290000E-04
   7.194051684800000E-04   7.376181414370000E-04   7.562921779980000E-04
   7.754389500460000E-04   7.950704249360000E-04   8.151988729790000E-04
   8.358368751100000E-04   8.569973307530000E-04   8.786934658800000E-04
   9.009388412830000E-04   9.237473610450000E-04   9.471332812350000E-04
   9.711112188120000E-04   9.956961607690000E-04   1.020903473490000E-03
   1.046748912380000E-03   1.073248631670000E-03   1.100419194540000E-03
   1.128277583490000E-03   1.156841210910000E-03   1.186127930000000E-03
   1.216156045920000E-03   1.246944327210000E-03   1.278512017550000E-03
   1.310878847770000E-03   1.344065048210000E-03   1.378091361310000E-03
   1.412979054620000E-03   1.448749934100000E-03   1.485426357700000E-03
   1.523031249380000E-03   1.561588113430000E-03   1.601121049150000E-03
   1.641654765890000E-03   1.683214598560000E-03   1.725826523400000E-03
   1.769517174250000E-03   1.814313859200000E-03   1.860244577630000E-03
   1.907338037720000E-03   1.955623674440000E-03   2.005131667870000E-03
   2.055892962120000E-03   2.107939284650000E-03   2.161303166110000E-03
   2.216017960660000E-03   2.272117866830000E-03   2.329637948880000E-03
   2.388614158750000E-03   2.449083358470000E-03   2.511083343280000E-03
   2.574652865170000E-03   2.639831657170000E-03   2.706660458140000E-03
   2.775181038270000E-03   2.845436225140000E-03   2.917469930540000E-03
   2.991327177860000E-03   3.067054130310000E-03   3.144698119680000E-03
   3.224307676010000E-03   3.305932557840000E-03   3.389623783400000E-03
   3.475433662420000E-03   3.563415828870000E-03   3.653625274470000E-03
   3.746118383050000E-03   3.840952965830000E-03   3.938188297500000E-03
   4.037885153300000E-03   4.140105847030000E-03   4.244914269950000E-03
   4.352375930720000E-03   4.462557996380000E-03   4.575529334320000E-03
   4.691360555290000E-03   4.810124057580000E-03   4.931894072240000E-03
   5.056746709510000E-03   5.184760006330000E-03   5.316013975190000E-03
   5.450590654090000E-03   5.588574157840000E-03   5.730050730620000E-03
   5.875108799880000E-03   6.023839031660000E-03   6.176334387170000E-03
   6.332690180990000E-03   6.493004140580000E-03   6.657376467370000E-03
   6.825909899430000E-03   6.998709775630000E-03   7.175884101530000E-03
   7.357543616840000E-03   7.543801864680000E-03   7.734775262500000E-03
   7.930583174909999E-03   8.131347988219999E-03   8.337195186980000E-03
   8.548253432389999E-03   8.764654642710000E-03   8.986534075760000E-03
   9.214030413390001E-03   9.447285848230000E-03   9.686446172520000E-03
   9.931660869240000E-03   1.018308320560000E-02   1.044087032860000E-02
   1.070518336380000E-02   1.097618751530000E-02   1.125405216960000E-02
   1.153895100100000E-02   1.183106208070000E-02   1.213056798770000E-02
   1.243765592270000E-02   1.275251782580000E-02   1.307535049600000E-02
   1.340635571410000E-02   1.374574036920000E-02   1.409371658780000E-02
   1.445050186630000E-02   1.481631920700000E-02   1.519139725790000E-02
   1.557597045480000E-02   1.597027916860000E-02   1.637456985500000E-02
   1.678909520880000E-02   1.721411432190000E-02   1.764989284510000E-02
   1.809670315410000E-02   1.855482452000000E-02   1.902454328340000E-02
   1.950615303400000E-02   1.999995479340000E-02   2.050625720390000E-02
   2.102537672090000E-02   2.155763781110000E-02   2.210337315490000E-02
   2.266292385470000E-02   2.323663964800000E-02   2.382487912570000E-02
   2.442800995660000E-02   2.504640911720000E-02   2.568046312720000E-02
   2.633056829080000E-02   2.699713094490000E-02   2.768056771300000E-02
   2.838130576530000E-02   2.909978308580000E-02   2.983644874620000E-02
   3.059176318670000E-02   3.136619850320000E-02   3.216023874310000E-02
   3.297438020740000E-02   3.380913176100000E-02   3.466501515080000E-02
   3.554256533170000E-02   3.644233080120000E-02   3.736487394210000E-02
   3.831077137370000E-02   3.928061431280000E-02   4.027500894280000E-02
   4.129457679270000E-02   4.233995512570000E-02   4.341179733710000E-02
   4.451077336330000E-02   4.563757010000000E-02   4.679289183190000E-02
   4.797746067280000E-02   4.919201701660000E-02   5.043732000060000E-02
   5.171414797970000E-02   5.302329901310000E-02   5.436559136260000E-02
   5.574186400470000E-02   5.715297715470000E-02   5.859981280410000E-02
   6.008327527230000E-02   6.160429177180000E-02   6.316381298720000E-02
   6.476281367020000E-02   6.640229324810000E-02   6.808327644919999E-02
   6.980681394259999E-02   7.157398299540001E-02   7.338588814579999E-02
   7.524366189340000E-02   7.714846540740000E-02   7.910148925179999E-02
   8.110395413030000E-02   8.315711164850000E-02   8.526224509680000E-02
   8.742067025200000E-02   8.963373620020000E-02   9.190282617950001E-02
   9.422935844520000E-02   9.661478715560000E-02   9.906060328129999E-02
   1.015683355370000E-01   1.041395513370000E-01   1.067758577750000E-01
   1.094789026280000E-01   1.122503753870000E-01   1.150920083140000E-01
   1.180055775200000E-01   1.209929040820000E-01   1.240558551760000E-01
   1.271963452450000E-01   1.304163372000000E-01   1.337178436390000E-01
   1.371029281110000E-01   1.405737064050000E-01   1.441323478700000E-01
   1.477810767720000E-01   1.515221736860000E-01   1.553579769200000E-01
   1.592908839740000E-01   1.633233530450000E-01   1.674579045560000E-01
   1.716971227370000E-01   1.760436572370000E-01   1.805002247820000E-01
   1.850696108720000E-01   1.897546715210000E-01   1.945583350450000E-01
   1.994836038900000E-01   2.045335565090000E-01   2.097113492880000E-01
   2.150202185150000E-01   2.204634824060000E-01   2.260445431790000E-01
   2.317668891780000E-01   2.376340970550000E-01   2.436498340070000E-01
   2.498178600660000E-01   2.561420304470000E-01   2.626262979630000E-01
   2.692747154930000E-01   2.760914385150000E-01   2.830807277010000E-01
   2.902469515850000E-01   2.975945892910000E-01   3.051282333310000E-01
   3.128525924770000E-01   3.207724947070000E-01   3.288928902150000E-01
   3.372188545150000E-01   3.457555916050000E-01   3.545084372230000E-01
   3.634828621820000E-01   3.726844757910000E-01   3.821190293580000E-01
   3.917924197850000E-01   4.017106932570000E-01   4.118800490170000E-01
   4.223068432440000E-01   4.329975930240000E-01   4.439589804220000E-01
   4.551978566640000E-01   4.667212464120000E-01   4.785363521610000E-01
   4.906505587360000E-01   5.030714379100000E-01   5.158067531370000E-01
   5.288644644050000E-01   5.422527332070000E-01   5.559799276470000E-01
   5.700546276689999E-01   5.844856304179999E-01   5.992819557410000E-01
   6.144528518230000E-01   6.300078009680000E-01   6.459565255260000E-01
   6.623089939670000E-01   6.790754271180000E-01   6.962663045450000E-01
   7.138923711070000E-01   7.319646436670000E-01   7.504944179850001E-01
   7.694932757740000E-01   7.889730919370000E-01   8.089460419950000E-01
   8.294246096900000E-01   8.504215947950000E-01   8.719501211080000E-01
   8.940236446590000E-01   9.166559621200000E-01   9.398612194250000E-01
   9.636539206150000E-01   9.880489369040000E-01   1.013061515970000E+00
   1.038707291490000E+00   1.065002292910000E+00   1.091962955460000E+00
   1.119606130430000E+00   1.147949095700000E+00   1.177009566560000E+00
   1.206805706740000E+00   1.237356139800000E+00   1.268679960760000E+00
   1.300796748010000E+00   1.333726575610000E+00   1.367490025760000E+00
   1.402108201730000E+00   1.437602740990000E+00   1.473995828790000E+00
   1.511310211990000E+00   1.549569213300000E+00   1.588796745840000E+00
   1.629017328090000E+00   1.670256099230000E+00   1.712538834840000E+00
   1.755891962990000E+00   1.800342580800000E+00   1.845918471370000E+00
   1.892648121090000E+00   1.940560737530000E+00   1.989686267630000E+00
   2.040055416450000E+00   2.091699666340000E+00   2.144651296630000E+00
   2.198943403840000E+00   2.254609922270000E+00   2.311685645340000E+00
   2.370206247210000E+00   2.430208305170000E+00   2.491729322460000E+00
   2.554807751710000E+00   2.619483019010000E+00   2.685795548490000E+00
   2.753786787650000E+00   2.823499233220000E+00   2.894976457760000E+00
   2.968263136840000E+00   3.043405077050000E+00   3.120449244520000E+00
   3.199443794380000E+00   3.280438100790000E+00   3.363482787830000E+00
   3.448629761130000E+00   3.535932240320000E+00   3.625444792300000E+00
   3.717223365310000E+00   3.811325323970000E+00   3.907809485040000E+00
   4.006736154290000E+00   4.108167164090000E+00   4.212165912130000E+00
   4.318797401010000E+00   4.428128278880000E+00   4.540226881100000E+00
   4.655163272950000E+00   4.773009293410000E+00   4.893838600080000E+00
   5.017726715210000E+00   5.144751072910000E+00   5.274991067530000E+00
   5.408528103320000E+00   5.545445645260000E+00   5.685829271270000E+00
   5.829766725700000E+00   5.977347974130000E+00   6.128665259660000E+00
   6.283813160510000E+00   6.442888649160000E+00   6.605991152990000E+00
   6.773222616350000E+00   6.944687564370000E+00   7.120493168210000E+00
   7.300749312100000E+00   7.485568662000000E+00   7.675066736020000E+00
   7.869361976620000E+00   8.068575824650001E+00   8.272832795250000E+00
   8.482260555690001E+00   8.696990005120000E+00   8.917155356440000E+00
   9.142894220170000E+00   9.374347690440000E+00   9.611660433210000E+00
   9.854980776660000E+00   1.010446080390000E+01   1.036025644820000E+01
   1.062252759000000E+01   1.089143815730000E+01   1.116715622810000E+01
   1.144985413510000E+01   1.173970857360000E+01   1.203690071220000E+01
   1.234161630570000E+01   1.265404581100000E+01   1.297438450700000E+01
   1.330283261570000E+01   1.363959542780000E+01   1.398488343110000E+01
   1.433891244180000E+01   1.470190373960000E+01   1.507408420590000E+01
   1.545568646550000E+01   1.584694903230000E+01   1.624811645810000E+01
   1.665943948570000E+01   1.708117520530000E+01   1.751358721550000E+01
   1.795694578780000E+01   1.841152803580000E+01   1.887761808820000E+01
   1.935550726650000E+01   1.984549426690000E+01   2.034788534730000E+01
   2.086299451840000E+01   2.139114374030000E+01   2.193266312340000E+01
   2.248789113490000E+01   2.305717481050000E+01   2.364086997090000E+01
   2.423934144460000E+01   2.485296329590000E+01   2.548211905830000E+01
   2.612720197460000E+01   2.678861524270000E+01   2.746677226740000E+01
   2.816209691890000E+01   2.887502379780000E+01   2.960599850650000E+01
   3.035547792810000E+01   3.112393051150000E+01   3.191183656480000E+01
   3.271968855470000E+01   3.354799141510000E+01   3.439726286230000E+01
   3.526803371850000E+01   3.616084824390000E+01   3.707626447660000E+01
   3.801485458160000E+01   3.897720520820000E+01   3.996391785690000E+01
   4.097560925520000E+01   4.201291174320000E+01   4.307647366870000E+01
   4.416695979250000E+01   4.528505170400000E+01   4.643144824700000E+01
   4.760686595670000E+01   4.881203950730000E+01   5.004772217160000E+01
   5.131468629150000E+01   5.261372376080000E+01   5.394564652020000E+01
   5.531128706470000E+01   5.671149896430000E+01   5.814715739680000E+01
   5.961915969560000E+01   6.112842591000000E+01   6.267589938060000E+01
   6.426254732850001E+01   6.588936146050000E+01   6.755735858830000E+01
   6.926758126439999E+01   7.102109843370000E+01   7.281900610140001E+01
   7.466242801849999E+01   7.655251638359999E+01   7.849045256340000E+01
   8.047744783120000E+01   8.251474412370000E+01   8.460361481740000E+01
   8.674536552450000E+01   8.894133490880000E+01   9.119289552280000E+01
   9.350145466500000E+01   9.586845526019999E+01   9.829537676080000E+01
   1.007837360720000E+02   1.033350884980000E+02   1.059510287190000E+02
   1.086331917820000E+02   1.113832541260000E+02   1.142029346300000E+02
   1.170939956850000E+02   1.200582443000000E+02   1.230975332260000E+02
   1.262137621170000E+02   1.294088787180000E+02   1.326848800800000E+02
   1.360438138120000E+02   1.394877793570000E+02   1.430189293040000E+02
   1.466394707380000E+02   1.503516666140000E+02   1.541578371770000E+02
   1.580603614060000E+02   1.620616785060000E+02   1.661642894310000E+02
   1.703707584460000E+02   1.746837147310000E+02   1.791058540240000E+02
   1.836399403070000E+02   1.882888075300000E+02   1.930553613870000E+02
   1.979425811300000E+02   2.029535214290000E+02   2.080913142860000E+02
    </PP_R>
    <PP_RAB>
   1.130164703490000E-09   1.158774959170000E-09   1.188109486920000E-09
   1.218186621780000E-09   1.249025162930000E-09   1.280644385470000E-09
   1.313064052440000E-09   1.346304427180000E-09   1.380386286020000E-09
   1.415330931220000E-09   1.451160204330000E-09   1.487896499800000E-09
   1.525562779020000E-09   1.564182584640000E-09   1.603780055290000E-09
   1.644379940680000E-09   1.686007617070000E-09   1.728689103100000E-09
   1.772451076100000E-09   1.817320888710000E-09   1.863326586040000E-09
   1.910496923140000E-09   1.958861383010000E-09   2.008450195010000E-09
   2.059294353770000E-09   2.111425638530000E-09   2.164876633050000E-09
   2.219680745930000E-09   2.275872231540000E-09   2.333486211380000E-09
   2.392558696060000E-09   2.453126607820000E-09   2.515227803560000E-09
   2.578901098550000E-09   2.644186290680000E-09   2.711124185320000E-09
   2.779756620830000E-09   2.850126494710000E-09   2.922277790430000E-09
   2.996255604900000E-09   3.072106176660000E-09   3.149876914790000E-09
   3.229616428530000E-09   3.311374557660000E-09   3.395202403690000E-09
   3.481152361740000E-09   3.569278153350000E-09   3.659634859980000E-09
   3.752278957540000E-09   3.847268351590000E-09   3.944662413600000E-09
   4.044522018030000E-09   4.146909580380000E-09   4.251889096210000E-09
   4.359526181140000E-09   4.469888111840000E-09   4.583043868120000E-09
   4.699064176010000E-09   4.818021551980000E-09   4.939990348260000E-09
   5.065046799320000E-09   5.193269069500000E-09   5.324737301910000E-09
   5.459533668470000E-09   5.597742421300000E-09   5.739449945360000E-09
   5.884744812470000E-09   6.033717836650000E-09   6.186462130890000E-09
   6.343073165360000E-09   6.503648827030000E-09   6.668289480940000E-09
   6.837098032840000E-09   7.010179993580000E-09   7.187643545010000E-09
   7.369599607640000E-09   7.556161909930001E-09   7.747447059380001E-09
   7.943574615439999E-09   8.144667164230000E-09   8.350850395120000E-09
   8.562253179360000E-09   8.779007650549999E-09   9.001249287310000E-09
   9.229116997890000E-09   9.462753207030000E-09   9.702303944949999E-09
   9.947918938690000E-09   1.019975170560000E-08   1.045795964930000E-08
   1.072270415830000E-08   1.099415070640000E-08   1.127246895660000E-08
   1.155783286690000E-08   1.185042079890000E-08   1.215041562970000E-08
   1.245800486580000E-08   1.277338076040000E-08   1.309674043390000E-08
   1.342828599640000E-08   1.376822467490000E-08   1.411676894190000E-08
   1.447413664910000E-08   1.484055116290000E-08   1.521624150420000E-08
   1.560144249180000E-08   1.599639488880000E-08   1.640134555340000E-08
   1.681654759290000E-08   1.724226052200000E-08   1.767875042520000E-08
   1.812629012290000E-08   1.858515934210000E-08   1.905564489080000E-08
   1.953804083790000E-08   2.003264869650000E-08   2.053977761270000E-08
   2.105974455850000E-08   2.159287453020000E-08   2.213950075140000E-08
   2.269996488120000E-08   2.327461722810000E-08   2.386381696840000E-08
   2.446793237110000E-08   2.508734102810000E-08   2.572243008990000E-08
   2.637359650780000E-08   2.704124728200000E-08   2.772579971610000E-08
   2.842768167750000E-08   2.914733186540000E-08   2.988520008460000E-08
   3.064174752660000E-08   3.141744705830000E-08   3.221278351720000E-08
   3.302825401430000E-08   3.386436824540000E-08   3.472164880900000E-08
   3.560063153350000E-08   3.650186581150000E-08   3.742591494390000E-08
   3.837335649140000E-08   3.934478263590000E-08   4.034080055030000E-08
   4.136203277830000E-08   4.240911762320000E-08   4.348270954720000E-08
   4.458347958010000E-08   4.571211573910000E-08   4.686932345840000E-08
   4.805582603070000E-08   4.927236505860000E-08   5.051970091850000E-08
   5.179861323620000E-08   5.310990137320000E-08   5.445438492750000E-08
   5.583290424510000E-08   5.724632094520000E-08   5.869551845960000E-08
   6.018140258360000E-08   6.170490204330000E-08   6.326696907550000E-08
   6.486858002289999E-08   6.651073594440000E-08   6.819446324100000E-08
   6.992081429710000E-08   7.169086813810000E-08   7.350573110559999E-08
   7.536653754770000E-08   7.727445052930000E-08   7.923066255790001E-08
   8.123639632980000E-08   8.329290549380000E-08   8.540147543520000E-08
   8.756342407880000E-08   8.978010271290000E-08   9.205289683379999E-08
   9.438322701180000E-08   9.677254977900000E-08   9.922235854020000E-08
   1.017341845050000E-07   1.043095976480000E-07   1.069502076840000E-07
   1.096576650810000E-07   1.124336620890000E-07   1.152799337960000E-07
   1.181982592140000E-07   1.211904623920000E-07   1.242584135540000E-07
   1.274040302690000E-07   1.306292786510000E-07   1.339361745840000E-07
   1.373267849860000E-07   1.408032290990000E-07   1.443676798140000E-07
   1.480223650280000E-07   1.517695690390000E-07   1.556116339720000E-07
   1.595509612410000E-07   1.635900130540000E-07   1.677313139510000E-07
   1.719774523800000E-07   1.763310823140000E-07   1.807949249150000E-07
   1.853717702300000E-07   1.900644789350000E-07   1.948759841260000E-07
   1.998092931520000E-07   2.048674894900000E-07   2.100537346780000E-07
   2.153712702880000E-07   2.208234199530000E-07   2.264135914430000E-07
   2.321452787990000E-07   2.380220645110000E-07   2.440476217620000E-07
   2.502257167200000E-07   2.565602108970000E-07   2.630550635580000E-07
   2.697143341970000E-07   2.765421850740000E-07   2.835428838190000E-07
   2.907208060970000E-07   2.980804383420000E-07   3.056263805650000E-07
   3.133633492240000E-07   3.212961801780000E-07   3.294298317030000E-07
   3.377693875970000E-07   3.463200603530000E-07   3.550871944210000E-07
   3.640762695450000E-07   3.732929041880000E-07   3.827428590490000E-07
   3.924320406550000E-07   4.023665050620000E-07   4.125524616330000E-07
   4.229962769220000E-07   4.337044786540000E-07   4.446837598030000E-07
   4.559409827770000E-07   4.674831837080000E-07   4.793175768470000E-07
   4.914515590740000E-07   5.038927145240000E-07   5.166488193240000E-07
   5.297278464540000E-07   5.431379707320000E-07   5.568875739220000E-07
   5.709852499750000E-07   5.854398103960000E-07   6.002602897560000E-07
   6.154559513370000E-07   6.310362929220000E-07   6.470110527330001E-07
   6.633902155130001E-07   6.801840187740000E-07   6.974029591880000E-07
   7.150577991540000E-07   7.331595735210000E-07   7.517195964890000E-07
   7.707494686740000E-07   7.902610843680000E-07   8.102666389650000E-07
   8.307786365870000E-07   8.518098979010000E-07   8.733735681310000E-07
   8.954831252710000E-07   9.181523885140000E-07   9.413955268890000E-07
   9.652270681140001E-07   9.896619076770000E-07   1.014715318150000E-06
   1.040402958720000E-06   1.066740885020000E-06   1.093745559090000E-06
   1.121433859740000E-06   1.149823093060000E-06   1.178931003250000E-06
   1.208775783680000E-06   1.239376088330000E-06   1.270751043380000E-06