<UPF version="2.0.1">
  <PP_INFO>
    Generated by new atomic code, or converted to UPF format
    Author: 
    Generation date: 
    Pseudopotential type: US
    Element: Sr
    Functional: SLA  PZ   NOGX NOGC
    Suggested minimum cutoff for wavefunctions:   0. Ry
    Suggested minimum cutoff for charge density:   0. Ry
    The Pseudo was generated with a Non-Relativistic Calculation
    L component and cutoff radius for Local Potential:  0   0.0000
    Valence configuration: 
    nl pn  l   occ       Rcut    Rcut US       E pseu
    4S  1  0  2.00      0.000      0.000     0.000000
    4P  2  1  6.00      0.000      0.000     0.000000
    4D  3  2  1.00      0.000      0.000     0.000000
    5S  1  0  1.00      0.000      0.000     0.000000
    5P  2  1  0.00      0.000      0.000     0.000000
    Generation configuration: not available.
  </PP_INFO>
    <!-- END OF HUMAN READABLE SECTION -->
  <PP_HEADER generated="Generated by new atomic code, or converted to UPF format" author="" date="" comment="" element="Sr" pseudo_type="US" relativistic="no" is_ultrasoft="true" is_paw="false" is_coulomb="false" has_so="false" has_wfc="false" has_gipaw="false" paw_as_gipaw="false" core_correction="true" functional="SLA  PZ   NOGX NOGC" z_valence="10.000000000000000" total_psenergy="-69.898117872800000" wfc_cutoff="0.0000000000000000" rho_cutoff="0.0000000000000000" l_max="2" l_max_rho="0" l_local="0" mesh_size="883" number_of_wfc="5" number_of_proj="6"/>
  <PP_MESH>
    <PP_R>
   0.000000000000000E+00   1.115021291580000E-06   2.249102316000000E-06
   3.402568872790000E-06   4.575752330580000E-06   5.768989722260000E-06
   6.982623841860000E-06   8.217003342969999E-06   9.472482838940000E-06
   1.074942300470000E-05   1.204819068050000E-05   1.336915897720000E-05
   1.471270738330000E-05   1.607922187430000E-05   1.746909502350000E-05
   1.888272611440000E-05   2.032052125590000E-05   2.178289349870000E-05
   2.327026295420000E-05   2.478305691460000E-05   2.632170997660000E-05
   2.788666416530000E-05   2.947836906180000E-05   3.109728193210000E-05
   3.274386785850000E-05   3.441859987330000E-05   3.612195909470000E-05
   3.785443486470000E-05   3.961652489010000E-05   4.140873538530000E-05
   4.323158121770000E-05   4.508558605560000E-05   4.697128251870000E-05
   4.888921233120000E-05   5.083992647720000E-05   5.282398535900000E-05
   5.484195895840000E-05   5.689442700020000E-05   5.898197911870000E-05
   6.110521502729999E-05   6.326474469050000E-05   6.546118849940000E-05
   6.769517744980001E-05   6.996735332359999E-05   7.227836887290000E-05
   7.462888800770000E-05   7.701958598660000E-05   7.945114961109999E-05
   8.192427742220000E-05   8.443967990160000E-05   8.699807967600001E-05
   8.960021172390000E-05   9.224682358760000E-05   9.493867558750000E-05
   9.767654104059999E-05   1.004612064830000E-04   1.032934718940000E-04
   1.061741509300000E-04   1.091040711530000E-04   1.120840742740000E-04
   1.151150163890000E-04   1.181977682300000E-04   1.213332154110000E-04
   1.245222586860000E-04   1.277658142050000E-04   1.310648137780000E-04
   1.344202051460000E-04   1.378329522460000E-04   1.413040354940000E-04
   1.448344520670000E-04   1.484252161840000E-04   1.520773594020000E-04
   1.557919309110000E-04   1.595699978360000E-04   1.634126455430000E-04
   1.673209779490000E-04   1.712961178430000E-04   1.753392072060000E-04
   1.794514075390000E-04   1.836339001980000E-04   1.878878867310000E-04
   1.922145892270000E-04   1.966152506650000E-04   2.010911352670000E-04
   2.056435288710000E-04   2.102737392900000E-04   2.149830966930000E-04
   2.197729539900000E-04   2.246446872120000E-04   2.295996959140000E-04
   2.346394035750000E-04   2.397652580040000E-04   2.449787317620000E-04
   2.502813225770000E-04   2.556745537820000E-04   2.611599747480000E-04
   2.667391613290000E-04   2.724137163190000E-04   2.781852699070000E-04
   2.840554801480000E-04   2.900260334410000E-04   2.960986450100000E-04
   3.022750593990000E-04   3.085570509720000E-04   3.149464244230000E-04
   3.214450152970000E-04   3.280546905120000E-04   3.347773489000000E-04
   3.416149217520000E-04   3.485693733680000E-04   3.556427016290000E-04
   3.628369385650000E-04   3.701541509420000E-04   3.775964408510000E-04
   3.851659463210000E-04   3.928648419220000E-04   4.006953393990000E-04
   4.086596883010000E-04   4.167601766330000E-04   4.249991315080000E-04
   4.333789198180000E-04   4.419019489150000E-04   4.505706672990000E-04
   4.593875653250000E-04   4.683551759190000E-04   4.774760753000000E-04
   4.867528837260000E-04   4.961882662460000E-04   5.057849334620000E-04
   5.155456423110000E-04   5.254731968560000E-04   5.355704490900000E-04
   5.458402997590000E-04   5.562856991930001E-04   5.669096481530000E-04
   5.777151986920000E-04   5.887054550390000E-04   5.998835744790000E-04
   6.112527682700000E-04   6.228163025630000E-04   6.345774993359999E-04
   6.465397373540000E-04   6.587064531360000E-04   6.710811419440000E-04
   6.836673587870000E-04   6.964687194420000E-04   7.094889014910000E-04
   7.227316453809999E-04   7.362007554960000E-04   7.499001012509999E-04
   7.638336182030000E-04   7.780053091810000E-04   7.924192454390000E-04
   8.070795678200000E-04   8.219904879520000E-04   8.371562894540000E-04
   8.525813291670000E-04   8.682700384070000E-04   8.842269242360000E-04
   9.004565707580000E-04   9.169636404370000E-04   9.337528754350000E-04
   9.508290989740000E-04   9.681972167230000E-04   9.858622182050000E-04
   1.003829178230000E-03   1.022103258370000E-03   1.040689708400000E-03
   1.059593867860000E-03   1.078821167540000E-03   1.098377131070000E-03
   1.118267376510000E-03   1.138497617930000E-03   1.159073667100000E-03
   1.180001435110000E-03   1.201286934110000E-03   1.222936279010000E-03
   1.244955689240000E-03   1.267351490560000E-03   1.290130116850000E-03
   1.313298111970000E-03   1.336862131630000E-03   1.360828945320000E-03
   1.385205438240000E-03   1.409998613290000E-03   1.435215593060000E-03
   1.460863621910000E-03   1.486950068010000E-03   1.513482425510000E-03
   1.540468316630000E-03   1.567915493890000E-03   1.595831842350000E-03
   1.624225381820000E-03   1.653104269230000E-03   1.682476800900000E-03
   1.712351415020000E-03   1.742736693970000E-03   1.773641366860000E-03
   1.805074312000000E-03   1.837044559470000E-03   1.869561293700000E-03
   1.902633856120000E-03   1.936271747840000E-03   1.970484632380000E-03
   2.005282338420000E-03   2.040674862690000E-03   2.076672372770000E-03
   2.113285210040000E-03   2.150523892670000E-03   2.188399118600000E-03
   2.226921768670000E-03   2.266102909670000E-03   2.305953797600000E-03
   2.346485880840000E-03   2.387710803480000E-03   2.429640408630000E-03
   2.472286741870000E-03   2.515662054660000E-03   2.559778807880000E-03
   2.604649675430000E-03   2.650287547840000E-03   2.696705535990000E-03
   2.743916974860000E-03   2.791935427390000E-03   2.840774688340000E-03
   2.890448788310000E-03   2.940971997690000E-03   2.992358830820000E-03
   3.044624050150000E-03   3.097782670460000E-03   3.151849963190000E-03
   3.206841460840000E-03   3.262772961390000E-03   3.319660532890000E-03
   3.377520518030000E-03   3.436369538860000E-03   3.496224501580000E-03
   3.557102601350000E-03   3.619021327270000E-03   3.681998467390000E-03
   3.746052113840000E-03   3.811200667970000E-03   3.877462845720000E-03
   3.944857682920000E-03   4.013404540800000E-03   4.083123111560000E-03
   4.154033423980000E-03   4.226155849230000E-03   4.299511106680000E-03
   4.374120269890000E-03   4.450004772610000E-03   4.527186415000000E-03
   4.605687369860000E-03   4.685530188980000E-03   4.766737809660000E-03
   4.849333561280000E-03   4.933341172010000E-03   5.018784775600000E-03
   5.105688918340000E-03   5.194078566130000E-03   5.283979111580000E-03
   5.375416381390000E-03   5.468416643720000E-03   5.563006615740000E-03
   5.659213471320000E-03   5.757064848830000E-03   5.856588859070000E-03
   5.957814093370000E-03   6.060769631790000E-03   6.165485051440000E-03
   6.271990435050000E-03   6.380316379560000E-03   6.490494004900000E-03
   6.602554962980000E-03   6.716531446750000E-03   6.832456199440000E-03
   6.950362524000000E-03   7.070284292610000E-03   7.192255956500000E-03
   7.316312555760000E-03   7.442489729450000E-03   7.570823725830000E-03
   7.701351412770000E-03   7.834110288350000E-03   7.969138491629999E-03
   8.106474813600001E-03   8.246158708320000E-03   8.388230304280000E-03
   8.532730415900001E-03   8.679700555250001E-03   8.829182944030000E-03
   8.981220525620000E-03   9.135856977479999E-03   9.293136723680000E-03
   9.453104947640000E-03   9.615807605130000E-03   9.781291437479999E-03
   9.949603984990001E-03   1.012079360060000E-02   1.029490946380000E-02
   1.047200159460000E-02   1.065212086830000E-02   1.083531902960000E-02
   1.102164870780000E-02   1.121116343180000E-02   1.140391764550000E-02
   1.159996672350000E-02   1.179936698680000E-02   1.200217571940000E-02
   1.220845118420000E-02   1.241825264020000E-02   1.263164035930000E-02
   1.284867564370000E-02   1.306942084330000E-02   1.329393937400000E-02
   1.352229573570000E-02   1.375455553070000E-02   1.399078548280000E-02
   1.423105345620000E-02   1.447542847520000E-02   1.472398074420000E-02
   1.497678166730000E-02   1.523390386940000E-02   1.549542121670000E-02
   1.576140883810000E-02   1.603194314660000E-02   1.630710186160000E-02
   1.658696403080000E-02   1.687161005320000E-02   1.716112170210000E-02
   1.745558214860000E-02   1.775507598550000E-02   1.805968925160000E-02
   1.836950945630000E-02   1.868462560500000E-02   1.900512822450000E-02
   1.933110938890000E-02   1.966266274650000E-02   1.999988354590000E-02
   2.034286866430000E-02   2.069171663470000E-02   2.104652767420000E-02
   2.140740371320000E-02   2.177444842450000E-02   2.214776725290000E-02
   2.252746744570000E-02   2.291365808330000E-02   2.330645011090000E-02
   2.370595637010000E-02   2.411229163120000E-02   2.452557262650000E-02
   2.494591808360000E-02   2.537344875960000E-02   2.580828747590000E-02
   2.625055915320000E-02   2.670039084760000E-02   2.715791178700000E-02
   2.762325340840000E-02   2.809654939530000E-02   2.857793571660000E-02
   2.906755066520000E-02   2.956553489800000E-02   3.007203147630000E-02
   3.058718590680000E-02   3.111114618330000E-02   3.164406282940000E-02
   3.218608894190000E-02   3.273738023430000E-02   3.329809508200000E-02
   3.386839456740000E-02   3.444844252660000E-02   3.503840559620000E-02
   3.563845326110000E-02   3.624875790340000E-02   3.686949485180000E-02
   3.750084243200000E-02   3.814298201800000E-02   3.879609808400000E-02
   3.946037825770000E-02   4.013601337380000E-02   4.082319752940000E-02
   4.152212813900000E-02   4.223300599200000E-02   4.295603530980000E-02
   4.369142380470000E-02   4.443938273960000E-02   4.520012698860000E-02
   4.597387509880000E-02   4.676084935320000E-02   4.756127583410000E-02
   4.837538448860000E-02   4.920340919440000E-02   5.004558782690000E-02
   5.090216232780000E-02   5.177337877430000E-02   5.265948745020000E-02
   5.356074291710000E-02   5.447740408850000E-02   5.540973430320000E-02
   5.635800140190000E-02   5.732247780310000E-02   5.830344058250000E-02
   5.930117155140000E-02   6.031595733890000E-02   6.134808947310000E-02
   6.239786446570000E-02   6.346558389670000E-02   6.455155450130000E-02
   6.565608825780000E-02   6.677950247730000E-02   6.792211989510000E-02
   6.908426876290000E-02   7.026628294380000E-02   7.146850200740000E-02
   7.269127132809999E-02   7.393494218390000E-02   7.519987185720001E-02
   7.648642373790000E-02   7.779496742750000E-02   7.912587884520000E-02
   8.047954033630000E-02   8.185634078130000E-02   8.325667570839999E-02
   8.468094740680000E-02   8.612956504210000E-02   8.760294477420000E-02
   8.910150987650001E-02   9.062569085790000E-02   9.217592558600000E-02
   9.375265941320000E-02   9.535634530459999E-02   9.698744396830000E-02
   9.864642398720000E-02   1.003337619540000E-01   1.020499426090000E-01
   1.037954589770000E-01   1.055708125110000E-01   1.073765132360000E-01
   1.092130798950000E-01   1.110810400980000E-01   1.129809304740000E-01
   1.149132968240000E-01   1.168786942800000E-01   1.188776874620000E-01
   1.209108506430000E-01   1.229787679110000E-01   1.250820333390000E-01
   1.272212511540000E-01   1.293970359120000E-01   1.316100126740000E-01
   1.338608171860000E-01   1.361500960590000E-01   1.384785069590000E-01
   1.408467187940000E-01   1.432554119060000E-01   1.457052782650000E-01
   1.481970216700000E-01   1.507313579510000E-01   1.533090151730000E-01
   1.559307338490000E-01   1.585972671460000E-01   1.613093811090000E-01
   1.640678548750000E-01   1.668734809000000E-01   1.697270651860000E-01
   1.726294275130000E-01   1.755814016740000E-01   1.785838357130000E-01
   1.816375921720000E-01   1.847435483350000E-01   1.879025964850000E-01
   1.911156441540000E-01   1.943836143880000E-01   1.977074460130000E-01
   2.010880939010000E-01   2.045265292460000E-01   2.080237398450000E-01
   2.115807303780000E-01   2.151985227000000E-01   2.188781561330000E-01
   2.226206877640000E-01   2.264271927500000E-01   2.302987646270000E-01
   2.342365156210000E-01   2.382415769730000E-01   2.423150992600000E-01
   2.464582527250000E-01   2.506722276160000E-01   2.549582345270000E-01
   2.593175047440000E-01   2.637512906020000E-01   2.682608658410000E-01
   2.728475259760000E-01   2.775125886640000E-01   2.822573940880000E-01
   2.870833053390000E-01   2.919917088080000E-01   2.969840145830000E-01
   3.020616568590000E-01   3.072260943430000E-01   3.124788106780000E-01
   3.178213148680000E-01   3.232551417120000E-01   3.287818522410000E-01
   3.344030341740000E-01   3.401203023670000E-01   3.459352992810000E-01
   3.518496954510000E-01   3.578651899700000E-01   3.639835109730000E-01
   3.702064161340000E-01   3.765356931740000E-01   3.829731603710000E-01
   3.895206670870000E-01   3.961800942920000E-01   4.029533551100000E-01
   4.098423953700000E-01   4.168491941590000E-01   4.239757643940000E-01
   4.312241534010000E-01   4.385964435020000E-01   4.460947526140000E-01
   4.537212348560000E-01   4.614780811670000E-01   4.693675199410000E-01
   4.773918176600000E-01   4.855532795500000E-01   4.938542502400000E-01
   5.022971144400000E-01   5.108842976200000E-01   5.196182667120000E-01
   5.285015308160000E-01   5.375366419230000E-01   5.467261956440000E-01
   5.560728319620000E-01   5.655792359830000E-01   5.752481387130000E-01
   5.850823178410000E-01   5.950845985370000E-01   6.052578542620000E-01
   6.156050075960000E-01   6.261290310760000E-01   6.368329480490000E-01
   6.477198335450000E-01   6.587928151540000E-01   6.700550739300000E-01
   6.815098453020000E-01   6.931604200040000E-01   7.050101450220000E-01
   7.170624245500000E-01   7.293207209770000E-01   7.417885558740001E-01
   7.544695110080000E-01   7.673672293720000E-01   7.804854162310000E-01
   7.938278401870000E-01   8.073983342590000E-01   8.212007969880000E-01
   8.352391935550000E-01   8.495175569190000E-01   8.640399889780001E-01
   8.788106617450000E-01   8.938338185490000E-01   9.091137752510000E-01
   9.246549214890000E-01   9.404617219319999E-01   9.565387175690000E-01
   9.728905270090000E-01   9.895218478100000E-01   1.006437457830000E+00
   1.023642216590000E+00   1.041141066700000E+00   1.058939035230000E+00
   1.077041235180000E+00   1.095452866990000E+00   1.114179219940000E+00
   1.133225673760000E+00   1.152597700130000E+00   1.172300864260000E+00
   1.192340826470000E+00   1.212723343880000E+00   1.233454271970000E+00
   1.254539566340000E+00   1.275985284400000E+00   1.297797587070000E+00
   1.319982740620000E+00   1.342547118410000E+00   1.365497202740000E+00
   1.388839586740000E+00   1.412580976210000E+00   1.436728191600000E+00
   1.461288169940000E+00   1.486267966840000E+00   1.511674758500000E+00
   1.537515843800000E+00   1.563798646390000E+00   1.590530716820000E+00
   1.617719734670000E+00   1.645373510850000E+00   1.673499989730000E+00
   1.702107251520000E+00   1.731203514520000E+00   1.760797137530000E+00
   1.790896622230000E+00   1.821510615600000E+00   1.852647912470000E+00
   1.884317457980000E+00   1.916528350170000E+00   1.949289842600000E+00
   1.982611347030000E+00   2.016502436060000E+00   2.050972845970000E+00
   2.086032479430000E+00   2.121691408390000E+00   2.157959876980000E+00
   2.194848304420000E+00   2.232367288040000E+00   2.270527606330000E+00
   2.309340222000000E+00   2.348816285170000E+00   2.388967136550000E+00
   2.429804310700000E+00   2.471339539340000E+00   2.513584754750000E+00
   2.556552093160000E+00   2.600253898260000E+00   2.644702724720000E+00
   2.689911341840000E+00   2.735892737170000E+00   2.782660120290000E+00
   2.830226926550000E+00   2.878606820970000E+00   2.927813702180000E+00
   2.977861706340000E+00   3.028765211290000E+00   3.080538840610000E+00
   3.133197467870000E+00   3.186756220870000E+00   3.241230486010000E+00
   3.296635912680000E+00   3.352988417800000E+00   3.410304190350000E+00
   3.468599696040000E+00   3.527891682040000E+00   3.588197181790000E+00
   3.649533519900000E+00   3.711918317100000E+00   3.775369495350000E+00
   3.839905282940000E+00   3.905544219750000E+00   3.972305162570000E+00
   4.040207290550000E+00   4.109270110630000E+00   4.179513463240000E+00
   4.250957527930000E+00   4.323622829200000E+00   4.397530242380000E+00
   4.472700999640000E+00   4.549156696090000E+00   4.626919295960000E+00
   4.706011138960000E+00   4.786454946630000E+00   4.868273828920000E+00
   4.951491290820000E+00   5.036131239090000E+00   5.122217989150000E+00
   5.209776272060000E+00   5.298831241610000E+00   5.389408481590000E+00
   5.481534013070000E+00   5.575234301940000E+00   5.670536266490000E+00
   5.767467285100000E+00   5.866055204210000E+00   5.966328346200000E+00
   6.068315517610000E+00   6.172046017380000E+00   6.277549645280000E+00
   6.384856710450000E+00   6.493998040150000E+00   6.605004988550000E+00
   6.717909445820000E+00   6.832743847210000E+00   6.949541182430000E+00
   7.068335005090000E+00   7.189159442360000E+00   7.312049204760000E+00
   7.437039596140000E+00   7.564166523830000E+00   7.693466508920000E+00
   7.824976696800000E+00   7.958734867810000E+00   8.094779448080001E+00
   8.233149520580000E+00   8.373884836369999E+00   8.517025825959999E+00
   8.662613610999999E+00   8.810690016040001E+00   8.961297580560000E+00
   9.114479571220000E+00   9.270279994219999E+00   9.428743608010000E+00
   9.589915936130000E+00   9.753843280260000E+00   9.920572733560000E+00
   1.009015219420000E+01   1.026263037900000E+01   1.043805683770000E+01
   1.061648196690000E+01   1.079795702460000E+01   1.098253414520000E+01
   1.117026635400000E+01   1.136120758300000E+01   1.155541268580000E+01
   1.175293745380000E+01   1.195383863200000E+01   1.215817393550000E+01
   1.236600206590000E+01   1.257738272800000E+01   1.279237664760000E+01
   1.301104558820000E+01   1.323345236920000E+01   1.345966088370000E+01
   1.368973611700000E+01   1.392374416540000E+01   1.416175225470000E+01
   1.440382876020000E+01   1.465004322570000E+01   1.490046638390000E+01
   1.515517017650000E+01   1.541422777490000E+01   1.567771360140000E+01
   1.594570335040000E+01   1.621827401020000E+01   1.649550388500000E+01
   1.677747261750000E+01   1.706426121210000E+01   1.735595205740000E+01
   1.765262895070000E+01   1.795437712130000E+01   1.826128325590000E+01
   1.857343552250000E+01   1.889092359640000E+01   1.921383868590000E+01
   1.954227355810000E+01   1.987632256620000E+01   2.021608167580000E+01
   2.056164849320000E+01   2.091312229310000E+01   2.127060404710000E+01
   2.163419645280000E+01   2.200400396320000E+01   2.238013281690000E+01
   2.276269106840000E+01   2.315178861930000E+01   2.354753724980000E+01
   2.395005065090000E+01   2.435944445670000E+01   2.477583627840000E+01
   2.519934573710000E+01   2.563009449890000E+01   2.606820630970000E+01
   2.651380703040000E+01   2.696702467360000E+01   2.742798943990000E+01
   2.789683375550000E+01   2.837369231040000E+01   2.885870209670000E+01
   2.935200244850000E+01   2.985373508130000E+01   3.036404413330000E+01
   3.088307620630000E+01   3.141098040820000E+01   3.194790839570000E+01
   3.249401441790000E+01   3.304945536030000E+01   3.361439079040000E+01
   3.418898300330000E+01   3.477339706810000E+01   3.536780087580000E+01
   3.597236518700000E+01   3.658726368140000E+01   3.721267300740000E+01
   3.784877283290000E+01   3.849574589730000E+01   3.915377806320000E+01
   3.982305837070000E+01   4.050377909100000E+01   4.119613578190000E+01
   4.190032734430000E+01   4.261655607860000E+01   4.334502774350000E+01
   4.408595161490000E+01   4.483954054580000E+01   4.560601102780000E+01
   4.638558325300000E+01   4.717848117740000E+01   4.798493258520000E+01
   4.880516915430000E+01   4.963942652290000E+01   5.048794435680000E+01
   5.135096641900000E+01   5.222874063880000E+01   5.312151918390000E+01
   5.402955853230000E+01   5.495311954600000E+01   5.589246754640000E+01
   5.684787238980000E+01   5.781960854570000E+01   5.880795517500000E+01
   5.981319621050000E+01   6.083562043870000E+01   6.187552158210000E+01
   6.293319838420000E+01   6.400895469520000E+01   6.510309955900000E+01
   6.621594730219999E+01   6.734781762439999E+01   6.849903569020000E+01
   6.966993222220000E+01   7.086084359630000E+01   7.207211193820000E+01
   7.330408522200000E+01   7.455711736969999E+01   7.583156835320000E+01
   7.712780429770000E+01   7.844619758659999E+01   7.978712696880000E+01
   8.115097766730000E+01   8.253814149010000E+01   8.394901694260000E+01
   8.538400934190000E+01   8.684353093350001E+01   8.832800100980000E+01
   8.983784603030000E+01   9.137349974430001E+01   9.293540331539999E+01
   9.452400544820000E+01   9.613976251740000E+01   9.778313869870000E+01
   9.945460610230000E+01   1.011546449080000E+02   1.028837435050000E+02
   1.046423986300000E+02   1.064311155090000E+02   1.082504080070000E+02
   1.101007987710000E+02   1.119828193830000E+02   1.138970105100000E+02
   1.158439220640000E+02   1.178241133530000E+02   1.198381532490000E+02
   1.218866203460000E+02   1.239701031290000E+02   1.260892001430000E+02
   1.282445201630000E+02   1.304366823700000E+02   1.326663165310000E+02
   1.349340631760000E+02   1.372405737860000E+02   1.395865109750000E+02
   1.419725486860000E+02   1.443993723820000E+02   1.468676792420000E+02
   1.493781783630000E+02   1.519315909630000E+02   1.545286505880000E+02
   1.571701033220000E+02   1.598567080050000E+02   1.625892364450000E+02
   1.653684736460000E+02   1.681952180270000E+02   1.710702816590000E+02
   1.739944904910000E+02   1.769686845920000E+02   1.799937183900000E+02
   1.830704609190000E+02   1.861997960680000E+02   1.893826228340000E+02
   1.926198555810000E+02   1.959124243040000E+02   1.992612748950000E+02
   2.026673694120000E+02
    </PP_R>
    <PP_RAB>
   1.105598651500000E-06   1.124497317460000E-06   1.143719029740000E-06
   1.163269310360000E-06   1.183153775750000E-06   1.203378138320000E-06
   1.223948208140000E-06   1.244869894600000E-06   1.266149208090000E-06
   1.287792261750000E-06   1.309805273210000E-06   1.332194566370000E-06
   1.354966573250000E-06   1.378127835810000E-06   1.401685007830000E-06
   1.425644856830000E-06   1.450014266010000E-06   1.474800236230000E-06
   1.500009888010000E-06   1.525650463610000E-06   1.551729329070000E-06
   1.578253976340000E-06   1.605232025430000E-06   1.632671226620000E-06
   1.660579462660000E-06   1.688964751050000E-06   1.717835246330000E-06
   1.747199242430000E-06   1.777065175060000E-06   1.807441624130000E-06
   1.838337316210000E-06   1.869761127020000E-06   1.901722084020000E-06
   1.934229368980000E-06   1.967292320610000E-06   2.000920437250000E-06
   2.035123379610000E-06   2.069910973540000E-06   2.105293212840000E-06
   2.141280262130000E-06   2.177882459810000E-06   2.215110320980000E-06
   2.252974540480000E-06   2.291485995970000E-06   2.330655751040000E-06
   2.370495058410000E-06   2.411015363140000E-06   2.452228305930000E-06
   2.494145726450000E-06   2.536779666780000E-06   2.580142374820000E-06
   2.624246307840000E-06   2.669104136040000E-06   2.714728746210000E-06
   2.761133245410000E-06   2.808330964760000E-06   2.856335463260000E-06
   2.905160531670000E-06   2.954820196470000E-06   3.005328723950000E-06
   3.056700624200000E-06   3.108950655400000E-06   3.162093827960000E-06
   3.216145408890000E-06   3.271120926160000E-06   3.327036173170000E-06
   3.383907213290000E-06   3.441750384480000E-06   3.500582303950000E-06
   3.560419872970000E-06   3.621280281730000E-06   3.683181014240000E-06
   3.746139853380000E-06   3.810174886010000E-06   3.875304508160000E-06
   3.941547430300000E-06   4.008922682740000E-06   4.077449621090000E-06
   4.147147931820000E-06   4.218037637900000E-06   4.290139104570000E-06
   4.363473045190000E-06   4.438060527170000E-06   4.513922978070000E-06
   4.591082191680000E-06   4.669560334370000E-06   4.749379951390000E-06
   4.830563973360000E-06   4.913135722880000E-06   4.997118921230000E-06
   5.082537695140000E-06   5.169416583780000E-06   5.257780545770000E-06
   5.347654966370000E-06   5.439065664760000E-06   5.532038901470000E-06
   5.626601385900000E-06   5.722780284030000E-06   5.820603226190000E-06
   5.920098315030000E-06   6.021294133560000E-06   6.124219753370000E-06
   6.228904743010000E-06   6.335379176450000E-06   6.443673641730000E-06
   6.553819249760000E-06   6.665847643230000E-06   6.779791005750000E-06
   6.895682071020000E-06   7.013554132320000E-06   7.133441052000000E-06
   7.255377271260000E-06   7.379397820000000E-06   7.505538326950000E-06
   7.633835029820000E-06   7.764324785770000E-06   7.897045081990000E-06
   8.032034046439999E-06   8.169330458849999E-06   8.308973761810000E-06
   8.451004072150001E-06   8.595462192430001E-06   8.742389622670001E-06
   8.891828572269999E-06   9.043821972160001E-06   9.198413487090000E-06
   9.355647528219999E-06   9.515569265850001E-06   9.678224642390000E-06
   9.843660385590000E-06   1.001192402190000E-05   1.018306389030000E-05
   1.035712915590000E-05   1.053416982430000E-05   1.071423675580000E-05
   1.089738168020000E-05   1.108365721150000E-05   1.127311686300000E-05
   1.146581506290000E-05   1.166180716950000E-05   1.186114948770000E-05
   1.206389928460000E-05   1.227011480630000E-05   1.247985529460000E-05
   1.269318100380000E-05   1.291015321830000E-05   1.313083427000000E-05
   1.335528755630000E-05   1.358357755820000E-05   1.381576985920000E-05
   1.405193116340000E-05   1.429212931560000E-05   1.453643332000000E-05
   1.478491336030000E-05   1.503764082020000E-05   1.529468830330000E-05
   1.555612965430000E-05   1.582203998040000E-05   1.609249567240000E-05
   1.636757442710000E-05   1.664735526910000E-05   1.693191857410000E-05
   1.722134609170000E-05   1.751572096880000E-05   1.781512777360000E-05
   1.811965251990000E-05   1.842938269170000E-05   1.874440726850000E-05
   1.906481675080000E-05   1.939070318600000E-05   1.972216019510000E-05
   2.005928299910000E-05   2.040216844700000E-05   2.075091504300000E-05
   2.110562297540000E-05   2.146639414490000E-05   2.183333219400000E-05
   2.220654253700000E-05   2.258613238990000E-05   2.297221080160000E-05
   2.336488868490000E-05   2.376427884860000E-05   2.417049602980000E-05
   2.458365692670000E-05   2.500388023260000E-05   2.543128666940000E-05
   2.586599902280000E-05   2.630814217720000E-05   2.675784315170000E-05
   2.721523113670000E-05   2.768043753110000E-05   2.815359597950000E-05
   2.863484241120000E-05   2.912431507900000E-05   2.962215459900000E-05
   3.012850399080000E-05   3.064350871880000E-05   3.116731673390000E-05
   3.170007851590000E-05   3.224194711710000E-05   3.279307820570000E-05
   3.335363011120000E-05   3.392376386920000E-05   3.450364326800000E-05
   3.509343489600000E-05   3.569330818860000E-05   3.630343547800000E-05
   3.692399204200000E-05   3.755515615430000E-05   3.819710913630000E-05
   3.885003540860000E-05   3.951412254420000E-05   4.018956132270000E-05
   4.087654578440000E-05   4.157527328670000E-05   4.228594456050000E-05
   4.300876376800000E-05   4.374393856100000E-05   4.449168014100000E-05
   4.525220331980000E-05   4.602572658100000E-05   4.681247214280000E-05
   4.761266602190000E-05   4.842653809870000E-05   4.925432218280000E-05
   5.009625608050000E-05   5.095258166320000E-05   5.182354493660000E-05
   5.270939611160000E-05   5.361038967620000E-05   5.452678446830000E-05
   5.545884375050000E-05   5.640683528530000E-05   5.737103141240000E-05
   5.835170912660000E-05   5.934915015770000E-05   6.036364105110000E-05
   6.139547325059999E-05   6.244494318139999E-05   6.351235233610000E-05
   6.459800736060000E-05   6.570222014260001E-05   6.682530790100000E-05
   6.796759327730000E-05   6.912940442780000E-05   7.031107511860000E-05
   7.151294482070001E-05   7.273535880790000E-05   7.397866825630000E-05
   7.524323034450000E-05   7.652940835680001E-05   7.783757178720001E-05
   7.916809644570000E-05   8.052136456640000E-05   8.189776491689999E-05
   8.329769291050000E-05   8.472155071950000E-05   8.616974739050000E-05
   8.764269896240000E-05   8.914082858590000E-05   9.066456664440001E-05
   9.221435087850000E-05   9.379062651110001E-05   9.539384637590000E-05
   9.702447104670000E-05   9.868296897059999E-05   1.003698166020000E-04
   1.020854985390000E-04   1.038305076650000E-04   1.056053452860000E-04
   1.074105212790000E-04   1.092465542370000E-04   1.111139716160000E-04
   1.130133098890000E-04   1.149451146980000E-04   1.169099410150000E-04
   1.189083532950000E-04   1.209409256450000E-04   1.230082419820000E-04
   1.251108962070000E-04   1.272494923710000E-04   1.294246448520000E-04
   1.316369785290000E-04   1.338871289620000E-04   1.361757425770000E-04