<UPF version="2.0.1">
  <PP_INFO>
    Generated by new atomic code, or converted to UPF format
    Author: 
    Generation date: 
    Pseudopotential type: US
    Element: Ta
    Functional: SLA  PZ   NOGX NOGC
    Suggested minimum cutoff for wavefunctions:   0. Ry
    Suggested minimum cutoff for charge density:   0. Ry
    The Pseudo was generated with a Non-Relativistic Calculation
    L component and cutoff radius for Local Potential:  0   0.0000
    Valence configuration: 
    nl pn  l   occ       Rcut    Rcut US       E pseu
    5S  1  0  2.00      0.000      0.000     0.000000
    5P  2  1  6.00      0.000      0.000     0.000000
    5D  3  2  3.00      0.000      0.000     0.000000
    6S  1  0  2.00      0.000      0.000     0.000000
    6P  2  1  0.00      0.000      0.000     0.000000
    Generation configuration: not available.
  </PP_INFO>
    <!-- END OF HUMAN READABLE SECTION -->
  <PP_HEADER generated="Generated by new atomic code, or converted to UPF format" author="" date="" comment="" element="Ta" pseudo_type="US" relativistic="no" is_ultrasoft="true" is_paw="false" is_coulomb="false" has_so="false" has_wfc="false" has_gipaw="false" paw_as_gipaw="false" core_correction="true" functional="SLA  PZ   NOGX NOGC" z_valence="13.000000000000000" total_psenergy="-141.12820098800000" wfc_cutoff="0.0000000000000000" rho_cutoff="0.0000000000000000" l_max="3" l_max_rho="0" l_local="0" mesh_size="921" number_of_wfc="5" number_of_proj="7"/>
  <PP_MESH>
    <PP_R>
   0.000000000000000E+00   5.804220421910000E-07   1.170765589150000E-06
   1.771200235150000E-06   2.381898473450000E-06   3.003035745830000E-06
   3.634790493020000E-06   4.277344205930000E-06   4.930881477800000E-06
   5.595590057250000E-06   6.271660902190000E-06   6.959288234690000E-06
   7.658669596780001E-06   8.370005907179999E-06   9.093501519060001E-06
   9.829364278710000E-06   1.057780558520000E-05   1.133904045140000E-05
   1.211328756520000E-05   1.290076935280000E-05   1.370171204260000E-05
   1.451634572990000E-05   1.534490444310000E-05   1.618762621120000E-05
   1.704475313180000E-05   1.791653144090000E-05   1.880321158350000E-05
   1.970504828570000E-05   2.062230062770000E-05   2.155523211840000E-05
   2.250411077090000E-05   2.346920917960000E-05   2.445080459880000E-05
   2.544917902170000E-05   2.646461926210000E-05   2.749741703620000E-05
   2.854786904680000E-05   2.961627706860000E-05   3.070294803440000E-05
   3.180819412380000E-05   3.293233285260000E-05   3.407568716410000E-05
   3.523858552180000E-05   3.642136200410000E-05   3.762435639960000E-05
   3.884791430540000E-05   4.009238722590000E-05   4.135813267430000E-05
   4.264551427450000E-05   4.395490186660000E-05   4.528667161210000E-05
   4.664120610290000E-05   4.801889447030000E-05   4.942013249760000E-05
   5.084532273340000E-05   5.229487460730000E-05   5.376920454750000E-05
   5.526873610040000E-05   5.679390005240000E-05   5.834513455370000E-05
   5.992288524380000E-05   6.152760538009999E-05   6.315975596749999E-05
   6.481980589130000E-05   6.650823205180000E-05   6.822551950109999E-05
   6.997216158270001E-05   7.174866007310000E-05   7.355552532580000E-05
   7.539327641840000E-05   7.726244130110000E-05   7.916355694880000E-05
   8.109716951530000E-05   8.306383449000000E-05   8.506411685780000E-05
   8.709859126100000E-05   8.916784216490000E-05   9.127246402500000E-05
   9.341306145860000E-05   9.559024941790000E-05   9.780465336690000E-05
   1.000569094610000E-04   1.023476647290000E-04   1.046775772620000E-04
   1.070473163980000E-04   1.094575629180000E-04   1.119090092380000E-04
   1.144023596110000E-04   1.169383303290000E-04   1.195176499280000E-04
   1.221410593950000E-04   1.248093123860000E-04   1.275231754380000E-04
   1.302834281910000E-04   1.330908636130000E-04   1.359462882250000E-04
   1.388505223360000E-04   1.418044002760000E-04   1.448087706360000E-04
   1.478644965160000E-04   1.509724557640000E-04   1.541335412380000E-04
   1.573486610570000E-04   1.606187388620000E-04   1.639447140830000E-04
   1.673275422090000E-04   1.707681950610000E-04   1.742676610710000E-04
   1.778269455690000E-04   1.814470710680000E-04   1.851290775600000E-04
   1.888740228150000E-04   1.926829826820000E-04   1.965570514020000E-04
   2.004973419200000E-04   2.045049862060000E-04   2.085811355770000E-04
   2.127269610340000E-04   2.169436535900000E-04   2.212324246210000E-04
   2.255945062070000E-04   2.300311514900000E-04   2.345436350320000E-04
   2.391332531830000E-04   2.438013244510000E-04   2.485491898820000E-04
   2.533782134470000E-04   2.582897824300000E-04   2.632853078300000E-04
   2.683662247650000E-04   2.735339928840000E-04   2.787900967870000E-04
   2.841360464500000E-04   2.895733776620000E-04   2.951036524630000E-04
   3.007284595930000E-04   3.064494149520000E-04   3.122681620570000E-04
   3.181863725240000E-04   3.242057465400000E-04   3.303280133530000E-04
   3.365549317730000E-04   3.428882906730000E-04   3.493299095050000E-04
   3.558816388210000E-04   3.625453608050000E-04   3.693229898170000E-04
   3.762164729380000E-04   3.832277905320000E-04   3.903589568160000E-04
   3.976120204340000E-04   4.049890650530000E-04   4.124922099540000E-04
   4.201236106460000E-04   4.278854594820000E-04   4.357799862910000E-04
   4.438094590190000E-04   4.519761843760000E-04   4.602825085060000E-04
   4.687308176550000E-04   4.773235388580000E-04   4.860631406380000E-04
   4.949521337130000E-04   5.039930717190000E-04   5.131885519420000E-04
   5.225412160670000E-04   5.320537509320000E-04   5.417288893050000E-04
   5.515694106660000E-04   5.615781420060000E-04   5.717579586390000E-04
   5.821117850310000E-04   5.926425956360000E-04   6.033534157500000E-04
   6.142473223860000E-04   6.253274451530000E-04   6.365969671540000E-04
   6.480591259070000E-04   6.597172142660000E-04   6.715745813760001E-04
   6.836346336280000E-04   6.959008356429999E-04   7.083767112610000E-04
   7.210658445620000E-04   7.339718808880000E-04   7.470985278930000E-04
   7.604495566089999E-04   7.740288025270000E-04   7.878401667040000E-04
   8.018876168750000E-04   8.161751886030000E-04   8.307069864290000E-04
   8.454871850580000E-04   8.605200305560000E-04   8.758098415670000E-04
   8.913610105580000E-04   9.071780050810000E-04   9.232653690500000E-04
   9.396277240540000E-04   9.562697706820000E-04   9.731962898710000E-04
   9.904121442820000E-04   1.007922279700000E-03   1.025731726440000E-03
   1.043845600820000E-03   1.062269106610000E-03   1.081007536510000E-03
   1.100066273720000E-03   1.119450793440000E-03   1.139166664480000E-03
   1.159219550810000E-03   1.179615213250000E-03   1.200359511080000E-03
   1.221458403730000E-03   1.242917952500000E-03   1.264744322300000E-03
   1.286943783440000E-03   1.309522713380000E-03   1.332487598620000E-03
   1.355845036530000E-03   1.379601737230000E-03   1.403764525580000E-03
   1.428340343080000E-03   1.453336249870000E-03   1.478759426810000E-03
   1.504617177480000E-03   1.530916930300000E-03   1.557666240700000E-03
   1.584872793230000E-03   1.612544403800000E-03   1.640689021940000E-03
   1.669314733040000E-03   1.698429760730000E-03   1.728042469180000E-03
   1.758161365550000E-03   1.788795102420000E-03   1.819952480270000E-03
   1.851642450020000E-03   1.883874115560000E-03   1.916656736450000E-03
   1.949999730490000E-03   1.983912676480000E-03   2.018405316950000E-03
   2.053487560970000E-03   2.089169486990000E-03   2.125461345740000E-03
   2.162373563170000E-03   2.199916743430000E-03   2.238101671970000E-03
   2.276939318570000E-03   2.316440840540000E-03   2.356617585890000E-03
   2.397481096640000E-03   2.439043112070000E-03   2.481315572150000E-03
   2.524310620940000E-03   2.568040610090000E-03   2.612518102370000E-03
   2.657755875300000E-03   2.703766924830000E-03   2.750564469040000E-03
   2.798161951960000E-03   2.846573047420000E-03   2.895811662990000E-03
   2.945891943970000E-03   2.996828277470000E-03   3.048635296500000E-03
   3.101327884220000E-03   3.154921178190000E-03   3.209430574720000E-03
   3.264871733310000E-03   3.321260581140000E-03   3.378613317620000E-03
   3.436946419090000E-03   3.496276643510000E-03   3.556621035330000E-03
   3.617996930300000E-03   3.680421960540000E-03   3.743914059550000E-03
   3.808491467380000E-03   3.874172735880000E-03   3.940976733990000E-03
   4.008922653220000E-03   4.078030013110000E-03   4.148318666880000E-03
   4.219808807080000E-03   4.292520971450000E-03   4.366476048800000E-03
   4.441695284990000E-03   4.518200289040000E-03   4.596013039360000E-03
   4.675155890050000E-03   4.755651577320000E-03   4.837523226030000E-03
   4.920794356300000E-03   5.005488890340000E-03   5.091631159230000E-03
   5.179245909990000E-03   5.268358312640000E-03   5.358993967450000E-03
   5.451178912280000E-03   5.544939630090000E-03   5.640303056510000E-03
   5.737296587620000E-03   5.835948087780000E-03   5.936285897650000E-03
   6.038338842350000E-03   6.142136239720000E-03   6.247707908730000E-03
   6.355084178090000E-03   6.464295894910000E-03   6.575374433620000E-03
   6.688351704920000E-03   6.803260165010000E-03   6.920132824850000E-03
   7.039003259700000E-03   7.159905618740000E-03   7.282874634870000E-03
   7.407945634720000E-03   7.535154548750000E-03   7.664537921640000E-03
   7.796132922720000E-03   7.929977356690000E-03   8.066109674460000E-03
   8.204568984220000E-03   8.345395062639999E-03   8.488628366330001E-03
   8.634310043450000E-03   8.782481945520001E-03   8.933186639470000E-03
   9.086467419840000E-03   9.242368321230000E-03   9.400934130950001E-03
   9.562210401890000E-03   9.726243465600000E-03   9.893080445610001E-03
   1.006276927090000E-02   1.023535868990000E-02   1.041089828420000E-02
   1.058943848280000E-02   1.077103057690000E-02   1.095572673450000E-02
   1.114358001510000E-02   1.133464438540000E-02   1.152897473440000E-02
   1.172662688950000E-02   1.192765763240000E-02   1.213212471530000E-02
   1.234008687760000E-02   1.255160386280000E-02   1.276673643570000E-02
   1.298554639970000E-02   1.320809661460000E-02   1.343445101490000E-02
   1.366467462770000E-02   1.389883359190000E-02   1.413699517680000E-02
   1.437922780160000E-02   1.462560105510000E-02   1.487618571550000E-02
   1.513105377090000E-02   1.539027844010000E-02   1.565393419320000E-02
   1.592209677340000E-02   1.619484321870000E-02   1.647225188380000E-02
   1.675440246290000E-02   1.704137601240000E-02   1.733325497420000E-02
   1.763012319950000E-02   1.793206597280000E-02   1.823917003640000E-02
   1.855152361540000E-02   1.886921644290000E-02   1.919233978590000E-02
   1.952098647140000E-02   1.985525091350000E-02   2.019522913960000E-02
   2.054101881910000E-02   2.089271929050000E-02   2.125043159060000E-02
   2.161425848330000E-02   2.198430448900000E-02   2.236067591470000E-02
   2.274348088460000E-02   2.313282937130000E-02   2.352883322690000E-02
   2.393160621580000E-02   2.434126404690000E-02   2.475792440680000E-02
   2.518170699410000E-02   2.561273355320000E-02   2.605112790990000E-02
   2.649701600630000E-02   2.695052593730000E-02   2.741178798770000E-02
   2.788093466920000E-02   2.835810075840000E-02   2.884342333590000E-02
   2.933704182560000E-02   2.983909803450000E-02   3.034973619360000E-02
   3.086910299940000E-02   3.139734765590000E-02   3.193462191750000E-02
   3.248108013280000E-02   3.303687928870000E-02   3.360217905550000E-02
   3.417714183280000E-02   3.476193279640000E-02   3.535671994540000E-02
   3.596167415060000E-02   3.657696920360000E-02   3.720278186690000E-02
   3.783929192420000E-02   3.848668223270000E-02   3.914513877500000E-02
   3.981485071290000E-02   4.049601044170000E-02   4.118881364550000E-02
   4.189345935310000E-02   4.261014999570000E-02   4.333909146460000E-02
   4.408049317060000E-02   4.483456810410000E-02   4.560153289620000E-02
   4.638160788090000E-02   4.717501715890000E-02   4.798198866120000E-02
   4.880275421510000E-02   4.963754961060000E-02   5.048661466840000E-02
   5.135019330840000E-02   5.222853362010000E-02   5.312188793350000E-02
   5.403051289210000E-02   5.495466952630000E-02   5.589462332840000E-02
   5.685064432900000E-02   5.782300717430000E-02   5.881199120540000E-02
   5.981788053830000E-02   6.084096414550000E-02   6.188153593910000E-02
   6.293989485540000E-02   6.401634494020000E-02   6.511119543690000E-02
   6.622476087489999E-02   6.735736115990000E-02   6.850932166610001E-02
   6.968097332950000E-02   7.087265274290000E-02   7.208470225270000E-02
   7.331747005740000E-02   7.457131030720000E-02   7.584658320620000E-02
   7.714365511570000E-02   7.846289865920000E-02   7.980469282990001E-02
   8.116942309940001E-02   8.255748152820000E-02   8.396926687860000E-02
   8.540518472930000E-02   8.686564759160000E-02   8.835107502840001E-02
   8.986189377410000E-02   9.139853785770000E-02   9.296144872740000E-02
   9.455107537710000E-02   9.616787447600000E-02   9.781231049899999E-02
   9.948485586090000E-02   1.011859910510000E-01   1.029162047740000E-01
   1.046759940850000E-01   1.064658645390000E-01   1.082863303300000E-01
   1.101379144430000E-01   1.120211488030000E-01   1.139365744250000E-01
   1.158847415760000E-01   1.178662099250000E-01   1.198815487100000E-01
   1.219313368990000E-01   1.240161633560000E-01   1.261366270120000E-01
   1.282933370350000E-01   1.304869130060000E-01   1.327179850960000E-01
   1.349871942500000E-01   1.372951923680000E-01   1.396426424930000E-01
   1.420302190010000E-01   1.444586077980000E-01   1.469285065120000E-01
   1.494406246970000E-01   1.519956840370000E-01   1.545944185500000E-01
   1.572375748030000E-01   1.599259121240000E-01   1.626602028190000E-01
   1.654412323970000E-01   1.682697997950000E-01   1.711467176050000E-01
   1.740728123100000E-01   1.770489245200000E-01   1.800759092150000E-01
   1.831546359880000E-01   1.862859893000000E-01   1.894708687250000E-01
   1.927101892200000E-01   1.960048813780000E-01   1.993558917000000E-01
   2.027641828670000E-01   2.062307340150000E-01   2.097565410160000E-01
   2.133426167680000E-01   2.169899914800000E-01   2.206997129720000E-01
   2.244728469760000E-01   2.283104774400000E-01   2.322137068400000E-01
   2.361836565000000E-01   2.402214669090000E-01   2.443282980510000E-01
   2.485053297410000E-01   2.527537619570000E-01   2.570748151940000E-01
   2.614697308040000E-01   2.659397713640000E-01   2.704862210280000E-01
   2.751103859040000E-01   2.798135944260000E-01   2.845971977330000E-01
   2.894625700620000E-01   2.944111091420000E-01   2.994442365900000E-01
   3.045633983280000E-01   3.097700649920000E-01   3.150657323560000E-01
   3.204519217620000E-01   3.259301805600000E-01   3.315020825460000E-01
   3.371692284200000E-01   3.429332462440000E-01   3.487957919090000E-01
   3.547585496090000E-01   3.608232323310000E-01   3.669915823400000E-01
   3.732653716840000E-01   3.796464027010000E-01   3.861365085370000E-01
   3.927375536750000E-01   3.994514344670000E-01   4.062800796820000E-01
   4.132254510560000E-01   4.202895438610000E-01   4.274743874730000E-01
   4.347820459600000E-01   4.422146186700000E-01   4.497742408380000E-01
   4.574630841960000E-01   4.652833576010000E-01   4.732373076650000E-01
   4.813272194050000E-01   4.895554168960000E-01   4.979242639400000E-01
   5.064361647440000E-01   5.150935646130000E-01   5.238989506510000E-01
   5.328548524740000E-01   5.419638429390000E-01   5.512285388840000E-01
   5.606516018770000E-01   5.702357389800000E-01   5.799837035310000E-01
   5.898982959320000E-01   5.999823644530000E-01   6.102388060520000E-01
   6.206705672060000E-01   6.312806447580001E-01   6.420720867780000E-01
   6.530479934390000E-01   6.642115179060000E-01   6.755658672440000E-01
   6.871143033380001E-01   6.988601438299999E-01   7.108067630720000E-01
   7.229575930970000E-01   7.353161246030000E-01   7.478859079580000E-01
   7.606705542170000E-01   7.736737361620000E-01   7.868991893540001E-01
   8.003507132110000E-01   8.140321720950000E-01   8.279474964240000E-01
   8.421006838030000E-01   8.564958001680000E-01   8.711369809560000E-01
   8.860284322970000E-01   9.011744322160000E-01   9.165793318660000E-01
   9.322475567750000E-01   9.481836081230000E-01   9.643920640280000E-01
   9.808775808660000E-01   9.976448946070000E-01   1.014698822180000E+00
   1.032044262840000E+00   1.049686199600000E+00   1.067629700640000E+00
   1.085879920800000E+00   1.104442103000000E+00   1.123321579800000E+00
   1.142523774900000E+00   1.162054204740000E+00   1.181918480010000E+00
   1.202122307350000E+00   1.222671490910000E+00   1.243571934100000E+00
   1.264829641180000E+00   1.286450719110000E+00   1.308441379190000E+00
   1.330807938910000E+00   1.353556823750000E+00   1.376694569030000E+00
   1.400227821780000E+00   1.424163342640000E+00   1.448508007820000E+00
   1.473268811080000E+00   1.498452865710000E+00   1.524067406610000E+00
   1.550119792340000E+00   1.576617507250000E+00   1.603568163600000E+00
   1.630979503820000E+00   1.658859402650000E+00   1.687215869430000E+00
   1.716057050440000E+00   1.745391231180000E+00   1.775226838810000E+00
   1.805572444510000E+00   1.836436765990000E+00   1.867828669970000E+00
   1.899757174740000E+00   1.932231452740000E+00   1.965260833200000E+00
   1.998854804820000E+00   2.033023018500000E+00   2.067775290110000E+00
   2.103121603300000E+00   2.139072112380000E+00   2.175637145250000E+00
   2.212827206320000E+00   2.250652979580000E+00   2.289125331650000E+00
   2.328255314880000E+00   2.368054170570000E+00   2.408533332150000E+00
   2.449704428500000E+00   2.491579287290000E+00   2.534169938340000E+00
   2.577488617140000E+00   2.621547768290000E+00   2.666360049150000E+00
   2.711938333400000E+00   2.758295714810000E+00   2.805445510960000E+00
   2.853401267080000E+00   2.902176759920000E+00   2.951786001730000E+00
   3.002243244300000E+00   3.053562983010000E+00   3.105759961040000E+00
   3.158849173550000E+00   3.212845872060000E+00   3.267765568780000E+00
   3.323624041060000E+00   3.380437335970000E+00   3.438221774860000E+00
   3.496993958100000E+00   3.556770769780000E+00   3.617569382640000E+00
   3.679407262920000E+00   3.742302175480000E+00   3.806272188780000E+00
   3.871335680180000E+00   3.937511341170000E+00   4.004818182730000E+00
   4.073275540800000E+00   4.142903081880000E+00   4.213720808590000E+00
   4.285749065510000E+00   4.359008544960000E+00   4.433520292960000E+00
   4.509305715310000E+00   4.586386583690000E+00   4.664785041940000E+00
   4.744523612410000E+00   4.825625202470000E+00   4.908113111020000E+00
   4.992011035240000E+00   5.077343077400000E+00   5.164133751720000E+00
   5.252407991490000E+00   5.342191156190000E+00   5.433509038800000E+00
   5.526387873160000E+00   5.620854341570000E+00   5.716935582420000E+00
   5.814659197990000E+00   5.914053262390000E+00   6.015146329600000E+00
   6.117967441700000E+00   6.222546137220000E+00   6.328912459590000E+00
   6.437096965790000E+00   6.547130735140000E+00   6.659045378220000E+00
   6.772873045930000E+00   6.888646438760000E+00   7.006398816160000E+00
   7.126164006120000E+00   7.247976414860000E+00   7.371871036720000E+00
   7.497883464230000E+00   7.626049898320000E+00   7.756407158740000E+00
   7.888992694590000E+00   8.023844595140000E+00   8.161001600730000E+00
   8.300503113910001E+00   8.442389210769999E+00   8.586700652439999E+00
   8.733478896799999E+00   8.882766110400000E+00   9.034605180570001E+00
   9.189039727740001E+00   9.346114117959999E+00   9.505873475660000E+00
   9.668363696629999E+00   9.833631461140000E+00   1.000172424740000E+01
   1.017269034530000E+01   1.034657887010000E+01   1.052343977640000E+01
   1.070332387320000E+01   1.088628283750000E+01   1.107236923000000E+01
   1.126163650970000E+01   1.145413904930000E+01   1.164993215120000E+01
   1.184907206300000E+01   1.205161599360000E+01   1.225762213000000E+01
   1.246714965390000E+01   1.268025875830000E+01   1.289701066550000E+01
   1.311746764400000E+01   1.334169302680000E+01   1.356975122970000E+01
   1.380170776930000E+01   1.403762928220000E+01   1.427758354410000E+01
   1.452163948920000E+01   1.476986723010000E+01   1.502233807780000E+01
   1.527912456220000E+01   1.554030045330000E+01   1.580594078170000E+01
   1.607612186080000E+01   1.635092130840000E+01   1.663041806900000E+01
   1.691469243670000E+01   1.720382607790000E+01   1.749790205530000E+01
   1.779700485100000E+01   1.810122039160000E+01   1.841063607230000E+01
   1.872534078230000E+01   1.904542493000000E+01   1.937098046960000E+01
   1.970210092670000E+01   2.003888142600000E+01   2.038141871780000E+01
   2.072981120670000E+01   2.108415897890000E+01   2.144456383170000E+01
   2.181112930250000E+01   2.218396069840000E+01   2.256316512680000E+01
   2.294885152560000E+01   2.334113069510000E+01   2.374011532950000E+01
   2.414592004950000E+01   2.455866143480000E+01   2.497845805800000E+01
   2.540543051870000E+01   2.583970147770000E+01   2.628139569260000E+01
   2.673064005370000E+01   2.718756362020000E+01   2.765229765740000E+01
   2.812497567430000E+01   2.860573346230000E+01   2.909470913370000E+01
   2.959204316180000E+01   3.009787842100000E+01   3.061236022810000E+01
   3.113563638360000E+01   3.166785721460000E+01   3.220917561810000E+01
   3.275974710410000E+01   3.331972984130000E+01   3.388928470190000E+01
   3.446857530800000E+01   3.505776807850000E+01   3.565703227710000E+01
   3.626654006090000E+01   3.688646652960000E+01   3.751698977600000E+01
   3.815829093750000E+01   3.881055424720000E+01   3.947396708800000E+01
   4.014872004540000E+01   4.083500696290000E+01   4.153302499740000E+01
   4.224297467610000E+01   4.296505995380000E+01   4.369948827150000E+01
   4.444647061630000E+01   4.520622158180000E+01   4.597895942980000E+01
   4.676490615280000E+01   4.756428753820000E+01   4.837733323270000E+01
   4.920427680860000E+01   5.004535583100000E+01   5.090081192530000E+01
   5.177089084780000E+01   5.265584255510000E+01   5.355592127680000E+01
   5.447138558800000E+01   5.540249848410000E+01   5.634952745560000E+01
   5.731274456570000E+01   5.829242652800000E+01   5.928885478630000E+01
   6.030231559490000E+01   6.133310010170000E+01   6.238150443110000E+01
   6.344782976930000E+01   6.453238245090000E+01   6.563547404710000E+01
   6.675742145460001E+01   6.789854698720001E+01   6.905917846830000E+01
   7.023964932470000E+01   7.144029868290001E+01   7.266147146620000E+01
   7.390351849400000E+01   7.516679658240000E+01   7.645166864660000E+01
   7.775850380550000E+01   7.908767748770001E+01   8.043957153890000E+01
   8.181457433220000E+01   8.321308087929999E+01   8.463549294409999E+01
   8.608221915790000E+01   8.755367513740001E+01   8.905028360320000E+01
   9.057247450200001E+01   9.212068512979999E+01   9.369536025770000E+01
   9.529695225920000E+01   9.692592124079999E+01   9.858273517370000E+01
   1.002678700280000E+02   1.019818099120000E+02   1.037250472060000E+02
   1.054980827080000E+02   1.073014257780000E+02   1.091355944800000E+02
   1.110011157370000E+02   1.128985254770000E+02   1.148283687870000E+02
   1.167912000760000E+02   1.187875832260000E+02   1.208180917610000E+02
   1.228833090040000E+02   1.249838282550000E+02   1.271202529500000E+02
   1.292931968440000E+02   1.315032841810000E+02   1.337511498770000E+02
   1.360374396990000E+02   1.383628104560000E+02   1.407279301800000E+02
   1.431334783250000E+02   1.455801459580000E+02   1.480686359600000E+02
   1.505996632260000E+02   1.531739548700000E+02   1.557922504370000E+02
   1.584553021130000E+02   1.611638749410000E+02   1.639187470410000E+02
   1.667207098350000E+02   1.695705682720000E+02   1.724691410620000E+02
   1.754172609090000E+02   1.784157747500000E+02   1.814655440000000E+02
   1.845674447990000E+02   1.877223682640000E+02   1.909312207420000E+02
   1.941949240750000E+02   1.975144158610000E+02   2.008906497270000E+02
    </PP_R>
    <PP_RAB>
   5.755171062610000E-07   5.853547679930000E-07   5.953605908230000E-07
   6.055374492300000E-07   6.158882668280000E-07   6.264160172069999E-07
   6.371237247870000E-07   6.480144656840000E-07   6.590913685970000E-07
   6.703576157060000E-07   6.818164435860000E-07   6.934711441370000E-07
   7.053250655280000E-07   7.173816131620000E-07   7.296442506520000E-07
   7.421165008149999E-07   7.548019466890000E-07   7.677042325560000E-07
   7.808270649930000E-07   7.941742139360000E-07   8.077495137630000E-07
   8.215568643950000E-07   8.356002324160000E-07   8.498836522140000E-07
   8.644112271390000E-07   8.791871306830000E-07   8.942156076770000E-07
   9.095009755100000E-07   9.250476253750000E-07   9.408600235220000E-07
   9.569427125469999E-07   9.733003126950000E-07   9.899375231900000E-07
   1.006859123580000E-06   1.024069975110000E-06   1.041575022130000E-06
   1.059379293500000E-06   1.077487904030000E-06   1.095906056000000E-06
   1.114639040560000E-06   1.133692239360000E-06   1.153071125990000E-06
   1.172781267650000E-06   1.192828326670000E-06   1.213218062190000E-06
   1.233956331780000E-06   1.255049093140000E-06   1.276502405820000E-06
   1.298322432950000E-06   1.320515442980000E-06   1.343087811550000E-06
   1.366046023260000E-06   1.389396673550000E-06   1.413146470630000E-06
   1.437302237340000E-06   1.461870913170000E-06   1.486859556220000E-06
   1.512275345250000E-06   1.538125581730000E-06   1.564417691920000E-06
   1.591159229040000E-06   1.618357875410000E-06   1.646021444690000E-06
   1.674157884080000E-06   1.702775276630000E-06   1.731881843570000E-06
   1.761485946650000E-06   1.791596090550000E-06   1.822220925340000E-06
   1.853369248950000E-06   1.885050009670000E-06   1.917272308780000E-06
   1.950045403130000E-06   1.983378707790000E-06   2.017281798770000E-06
   2.051764415770000E-06   2.086836464990000E-06   2.122508021940000E-06
   2.158789334370000E-06   2.195690825210000E-06   2.233223095530000E-06
   2.271396927630000E-06   2.310223288120000E-06   2.349713331050000E-06
   2.389878401150000E-06   2.430730037070000E-06   2.472279974700000E-06
   2.514540150520000E-06   2.557522705060000E-06   2.601239986390000E-06
   2.645704553630000E-06   2.690929180600000E-06   2.736926859440000E-06
   2.783710804410000E-06   2.831294455630000E-06   2.879691482950000E-06
   2.928915789920000E-06   2.978981517710000E-06   3.029903049250000E-06
   3.081695013300000E-06   3.134372288700000E-06   3.187950008600000E-06
   3.242443564860000E-06   3.297868612400000E-06   3.354241073780000E-06
   3.411577143710000E-06   3.469893293740000E-06   3.529206276960000E-06
   3.589533132860000E-06   3.650891192170000E-06   3.713298081860000E-06
   3.776771730240000E-06   3.841330372060000E-06   3.906992553750000E-06
   3.973777138810000E-06   4.041703313140000E-06   4.110790590620000E-06
   4.181058818690000E-06   4.252528184060000E-06   4.325219218480000E-06
   4.399152804680000E-06   4.474350182360000E-06   4.550832954270000E-06
   4.628623092410000E-06   4.707742944410000E-06   4.788215239850000E-06
   4.870063096880000E-06   4.953310028800000E-06   5.037979950830000E-06
   5.124097187020000E-06   5.211686477170000E-06   5.300772984000000E-06
   5.391382300330000E-06   5.483540456470000E-06   5.577273927670000E-06
   5.672609641740000E-06   5.769574986800000E-06   5.868197819100000E-06
   5.968506471080000E-06   6.070529759470000E-06   6.174296993600000E-06
   6.279837983770000E-06   6.387183049880000E-06   6.496363030070000E-06
   6.607409289660000E-06   6.720353730080000E-06   6.835228798080000E-06
   6.952067495040000E-06   7.070903386470000E-06   7.191770611610000E-06
   7.314703893290000E-06   7.439738547840000E-06   7.566910495320000E-06
   7.696256269749999E-06   7.827813029679999E-06   7.961618568820000E-06
   8.097711326920000E-06   8.236130400769999E-06   8.376915555519999E-06
   8.520107236000000E-06   8.665746578430001E-06   8.813875422150000E-06
   8.964536321730000E-06   9.117772559120000E-06   9.273628156130001E-06
   9.432147887060000E-06   9.593377291550000E-06   9.757362687710001E-06
   9.924151185340001E-06   1.009379069960000E-05   1.026632996460000E-05
   1.044181854750000E-05   1.062030686280000E-05   1.080184618680000E-05
   1.098648867210000E-05   1.117428736310000E-05   1.136529621060000E-05
   1.155957008770000E-05   1.175716480570000E-05   1.195813712960000E-05
   1.216254479490000E-05   1.237044652390000E-05   1.258190204290000E-05
   1.279697209880000E-05   1.301571847720000E-05   1.323820401970000E-05
   1.346449264200000E-05   1.369464935250000E-05   1.392874027070000E-05
   1.416683264650000E-05   1.440899487920000E-05   1.465529653730000E-05
   1.490580837840000E-05   1.516060236990000E-05   1.541975170910000E-05
   1.568333084450000E-05   1.595141549750000E-05   1.622408268340000E-05
   1.650141073430000E-05   1.678347932120000E-05   1.707036947700000E-05
   1.736216361950000E-05   1.765894557570000E-05   1.796080060530000E-05
   1.826781542530000E-05   1.858007823520000E-05   1.889767874200000E-05
   1.922070818620000E-05   1.954925936800000E-05   1.988342667370000E-05
   2.022330610310000E-05   2.056899529700000E-05   2.092059356520000E-05
   2.127820191520000E-05   2.164192308080000E-05   2.201186155210000E-05
   2.238812360520000E-05   2.277081733310000E-05   2.316005267620000E-05
   2.355594145420000E-05   2.395859739830000E-05   2.436813618390000E-05
   2.478467546350000E-05   2.520833490070000E-05   2.563923620470000E-05
   2.607750316520000E-05   2.652326168770000E-05   2.697663983000000E-05
   2.743776783890000E-05   2.790677818760000E-05   2.838380561370000E-05
   2.886898715780000E-05   2.936246220330000E-05   2.986437251600000E-05
   3.037486228510000E-05   3.089407816430000E-05   3.142216931430000E-05
   3.195928744550000E-05   3.250558686160000E-05   3.306122450370000E-05
   3.362635999590000E-05   3.420115569070000E-05   3.478577671560000E-05
   3.538039102100000E-05   3.598516942820000E-05   3.660028567820000E-05
   3.722591648200000E-05   3.786224157130000E-05   3.850944374990000E-05