<UPF version="2.0.1">
  <PP_INFO>
    Generated by new atomic code, or converted to UPF format
    Author: 
    Generation date: 
    Pseudopotential type: US
    Element: Tc
    Functional: SLA  PZ   NOGX NOGC
    Suggested minimum cutoff for wavefunctions:   0. Ry
    Suggested minimum cutoff for charge density:   0. Ry
    The Pseudo was generated with a Non-Relativistic Calculation
    L component and cutoff radius for Local Potential:  0   0.0000
    Valence configuration: 
    nl pn  l   occ       Rcut    Rcut US       E pseu
    4S  1  0  2.00      0.000      0.000     0.000000
    4P  2  1  6.00      0.000      0.000     0.000000
    4D  3  2  5.00      0.000      0.000     0.000000
    5S  1  0  1.00      0.000      0.000     0.000000
    5P  2  1  0.00      0.000      0.000     0.000000
    Generation configuration: not available.
  </PP_INFO>
    <!-- END OF HUMAN READABLE SECTION -->
  <PP_HEADER generated="Generated by new atomic code, or converted to UPF format" author="" date="" comment="" element="Tc" pseudo_type="US" relativistic="no" is_ultrasoft="true" is_paw="false" is_coulomb="false" has_so="false" has_wfc="false" has_gipaw="false" paw_as_gipaw="false" core_correction="true" functional="SLA  PZ   NOGX NOGC" z_valence="15.000000000000000" total_psenergy="-172.85749731700000" wfc_cutoff="0.0000000000000000" rho_cutoff="0.0000000000000000" l_max="2" l_max_rho="0" l_local="0" mesh_size="965" number_of_wfc="5" number_of_proj="6"/>
  <PP_MESH>
    <PP_R>
   0.000000000000000E+00   3.564044089860000E-07   7.187986682200000E-07
   1.087283445100000E-06   1.461961098890000E-06   1.842935709120000E-06
   2.230313104510000E-06   2.624200892400000E-06   3.024708488580000E-06
   3.431947147750000E-06   3.846029994370000E-06   4.267072054110000E-06
   4.695190285820000E-06   5.130503613980000E-06   5.573132961750000E-06
   6.023201284570000E-06   6.480833604330000E-06   6.946157044050000E-06
   7.419300863230000E-06   7.900396493760000E-06   8.389577576400000E-06
   8.886979997940001E-06   9.392741928909999E-06   9.907003861980001E-06
   1.042990865100000E-05   1.096160155070000E-05   1.150223025690000E-05
   1.205194494780000E-05   1.261089832530000E-05   1.317924565800000E-05
   1.375714482380000E-05   1.434475635390000E-05   1.494224347740000E-05
   1.554977216700000E-05   1.616751118450000E-05   1.679563212790000E-05
   1.743430947950000E-05   1.808372065370000E-05   1.874404604660000E-05
   1.941546908620000E-05   2.009817628330000E-05   2.079235728300000E-05
   2.149820491800000E-05   2.221591526160000E-05   2.294568768230000E-05
   2.368772489940000E-05   2.444223303910000E-05   2.520942169190000E-05
   2.598950397070000E-05   2.678269657000000E-05   2.758921982620000E-05
   2.840929777870000E-05   2.924315823220000E-05   3.009103281990000E-05
   3.095315706820000E-05   3.182977046130000E-05   3.272111650880000E-05
   3.362744281250000E-05   3.454900113540000E-05   3.548604747200000E-05
   3.643884211890000E-05   3.740764974740000E-05   3.839273947700000E-05
   3.939438495010000E-05   4.041286440790000E-05   4.144846076800000E-05
   4.250146170260000E-05   4.357215971890000E-05   4.466085223980000E-05
   4.576784168680000E-05   4.689343556430000E-05   4.803794654430000E-05
   4.920169255400000E-05   5.038499686360000E-05   5.158818817640000E-05
   5.281160071990000E-05   5.405557433880000E-05   5.532045458930000E-05
   5.660659283530000E-05   5.791434634550000E-05   5.924407839330000E-05
   6.059615835720000E-05   6.197096182360000E-05   6.336887069139999E-05
   6.479027327740000E-05   6.623556442490000E-05   6.770514561290000E-05
   6.919942506790000E-05   7.071881787720000E-05   7.226374610390000E-05
   7.383463890490000E-05   7.543193264920001E-05   7.705607104000000E-05
   7.870750523719999E-05   8.038669398300000E-05   8.209410372979999E-05
   8.383020876880001E-05   8.559549136270000E-05   8.739044187910000E-05
   8.921555892689999E-05   9.107134949480000E-05   9.295832909210001E-05
   9.487702189200001E-05   9.682796087700000E-05   9.881168798710000E-05
   1.008287542700000E-04   1.028797200360000E-04   1.049651550100000E-04
   1.070856384930000E-04   1.092417595220000E-04   1.114341170340000E-04
   1.136633200300000E-04   1.159299877480000E-04   1.182347498330000E-04
   1.205782465110000E-04   1.229611287680000E-04   1.253840585320000E-04
   1.278477088540000E-04   1.303527640970000E-04   1.328999201260000E-04
   1.354898845010000E-04   1.381233766730000E-04   1.408011281840000E-04
   1.435238828720000E-04   1.462923970750000E-04   1.491074398420000E-04
   1.519697931480000E-04   1.548802521100000E-04   1.578396252060000E-04
   1.608487345040000E-04   1.639084158870000E-04   1.670195192870000E-04
   1.701829089180000E-04   1.733994635200000E-04   1.766700766020000E-04
   1.799956566880000E-04   1.833771275710000E-04   1.868154285710000E-04
   1.903115147940000E-04   1.938663573970000E-04   1.974809438590000E-04
   2.011562782560000E-04   2.048933815360000E-04   2.086932918090000E-04
   2.125570646300000E-04   2.164857732930000E-04   2.204805091320000E-04
   2.245423818210000E-04   2.286725196840000E-04   2.328720700100000E-04
   2.371421993650000E-04   2.414840939250000E-04   2.458989597990000E-04
   2.503880233680000E-04   2.549525316230000E-04   2.595937525110000E-04
   2.643129752910000E-04   2.691115108880000E-04   2.739906922600000E-04
   2.789518747660000E-04   2.839964365440000E-04   2.891257788940000E-04
   2.943413266660000E-04   2.996445286570000E-04   3.050368580140000E-04
   3.105198126380000E-04   3.160949156100000E-04   3.217637156040000E-04
   3.275277873240000E-04   3.333887319370000E-04   3.393481775220000E-04
   3.454077795190000E-04   3.515692211880000E-04   3.578342140820000E-04
   3.642044985160000E-04   3.706818440560000E-04   3.772680500040000E-04
   3.839649459060000E-04   3.907743920520000E-04   3.976982800000000E-04
   4.047385330970000E-04   4.118971070130000E-04   4.191759902880000E-04
   4.265772048800000E-04   4.341028067290000E-04   4.417548863300000E-04
   4.495355693080000E-04   4.574470170150000E-04   4.654914271260000E-04
   4.736710342520000E-04   4.819881105570000E-04   4.904449663940000E-04
   4.990439509440000E-04   5.077874528700000E-04   5.166779009780000E-04
   5.257177648940000E-04   5.349095557500000E-04   5.442558268800000E-04
   5.537591745300000E-04   5.634222385800000E-04   5.732477032780000E-04
   5.832382979810000E-04   5.933967979200000E-04   6.037260249650000E-04
   6.142288484130000E-04   6.249081857810000E-04   6.357670036210000E-04
   6.468083183420000E-04   6.580351970450000E-04   6.694507583810000E-04
   6.810581734130000E-04   6.928606664970000E-04   7.048615161790000E-04
   7.170640561050000E-04   7.294716759490000E-04   7.420878223510000E-04
   7.549159998780000E-04   7.679597719950000E-04   7.812227620560000E-04
   7.947086543090000E-04   8.084211949230000E-04   8.223641930250000E-04
   8.365415217600000E-04   8.509571193660000E-04   8.656149902670000E-04
   8.805192061900000E-04   8.956739072900000E-04   9.110833033030000E-04
   9.267516747170000E-04   9.426833739570000E-04   9.588828265980000E-04
   9.753545325930000E-04   9.921030675200000E-04   1.009133083860000E-03
   1.026449312280000E-03   1.044056562960000E-03   1.061959726900000E-03
   1.080163777340000E-03   1.098673771060000E-03   1.117494849850000E-03
   1.136632241910000E-03   1.156091263310000E-03   1.175877319450000E-03
   1.195995906580000E-03   1.216452613330000E-03   1.237253122260000E-03
   1.258403211420000E-03   1.279908755950000E-03   1.301775729780000E-03
   1.324010207190000E-03   1.346618364580000E-03   1.369606482130000E-03
   1.392980945570000E-03   1.416748247980000E-03   1.440914991510000E-03
   1.465487889330000E-03   1.490473767380000E-03   1.515879566360000E-03
   1.541712343590000E-03   1.567979275000000E-03   1.594687657150000E-03
   1.621844909180000E-03   1.649458574970000E-03   1.677536325150000E-03
   1.706085959270000E-03   1.735115407980000E-03   1.764632735200000E-03
   1.794646140360000E-03   1.825163960730000E-03   1.856194673680000E-03
   1.887746899030000E-03   1.919829401510000E-03   1.952451093130000E-03
   1.985621035670000E-03   2.019348443230000E-03   2.053642684740000E-03
   2.088513286600000E-03   2.123969935320000E-03   2.160022480190000E-03
   2.196680936050000E-03   2.233955486020000E-03   2.271856484400000E-03
   2.310394459470000E-03   2.349580116490000E-03   2.389424340600000E-03
   2.429938199910000E-03   2.471132948530000E-03   2.513020029700000E-03
   2.555611078990000E-03   2.598917927540000E-03   2.642952605280000E-03
   2.687727344370000E-03   2.733254582520000E-03   2.779546966470000E-03
   2.826617355520000E-03   2.874478825080000E-03   2.923144670310000E-03
   2.972628409820000E-03   3.022943789400000E-03   3.074104785870000E-03
   3.126125610950000E-03   3.179020715210000E-03   3.232804792060000E-03
   3.287492781880000E-03   3.343099876130000E-03   3.399641521570000E-03
   3.457133424580000E-03   3.515591555520000E-03   3.575032153110000E-03
   3.635471729020000E-03   3.696927072420000E-03   3.759415254620000E-03
   3.822953633860000E-03   3.887559860090000E-03   3.953251879910000E-03
   4.020047941510000E-03   4.087966599790000E-03   4.157026721480000E-03
   4.227247490400000E-03   4.298648412760000E-03   4.371249322600000E-03
   4.445070387330000E-03   4.520132113260000E-03   4.596455351350000E-03
   4.674061303000000E-03   4.752971525920000E-03   4.833207940110000E-03
   4.914792833980000E-03   4.997748870540000E-03   5.082099093650000E-03
   5.167866934490000E-03   5.255076217990000E-03   5.343751169520000E-03
   5.433916421590000E-03   5.525597020670000E-03   5.618818434190000E-03
   5.713606557580000E-03   5.809987721500000E-03   5.907988699090000E-03
   6.007636713500000E-03   6.108959445350000E-03   6.211985040520000E-03
   6.316742117870000E-03   6.423259777280000E-03   6.531567607660000E-03
   6.641695695220000E-03   6.753674631810000E-03   6.867535523400000E-03
   6.983309998760000E-03   7.101030218200000E-03   7.220728882540000E-03
   7.342439242170000E-03   7.466195106330000E-03   7.592030852420000E-03
   7.719981435640000E-03   7.850082398630000E-03   7.982369881390000E-03
   8.116880631289999E-03   8.253652013300000E-03   8.392722020340001E-03
   8.534129283859999E-03   8.677913084569999E-03   8.824113363340000E-03
   8.972770732300000E-03   9.123926486119999E-03   9.277622613470000E-03
   9.433901808720000E-03   9.592807483759999E-03   9.754383780070000E-03
   9.918675581000000E-03   1.008572852420000E-02   1.025558901440000E-02
   1.042830423610000E-02   1.060392216690000E-02   1.078249159060000E-02
   1.096406211110000E-02   1.114868416570000E-02   1.133640903950000E-02
   1.152728887970000E-02   1.172137670940000E-02   1.191872644340000E-02
   1.211939290220000E-02   1.232343182780000E-02   1.253089989900000E-02
   1.274185474720000E-02   1.295635497220000E-02   1.317446015890000E-02
   1.339623089340000E-02   1.362172878010000E-02   1.385101645880000E-02
   1.408415762200000E-02   1.432121703260000E-02   1.456226054200000E-02
   1.480735510830000E-02   1.505656881480000E-02   1.530997088920000E-02
   1.556763172260000E-02   1.582962288900000E-02   1.609601716560000E-02
   1.636688855240000E-02   1.664231229320000E-02   1.692236489640000E-02
   1.720712415620000E-02   1.749666917420000E-02   1.779108038140000E-02
   1.809043956060000E-02   1.839482986910000E-02   1.870433586170000E-02
   1.901904351420000E-02   1.933904024760000E-02   1.966441495170000E-02
   1.999525801070000E-02   2.033166132740000E-02   2.067371834940000E-02
   2.102152409470000E-02   2.137517517820000E-02   2.173476983870000E-02
   2.210040796590000E-02   2.247219112830000E-02   2.285022260130000E-02
   2.323460739610000E-02   2.362545228890000E-02   2.402286585000000E-02
   2.442695847470000E-02   2.483784241350000E-02   2.525563180360000E-02
   2.568044270020000E-02   2.611239310910000E-02   2.655160301930000E-02
   2.699819443630000E-02   2.745229141630000E-02   2.791402010010000E-02
   2.838350874870000E-02   2.886088777870000E-02   2.934628979830000E-02
   2.983984964470000E-02   3.034170442090000E-02   3.085199353430000E-02
   3.137085873510000E-02   3.189844415590000E-02   3.243489635160000E-02
   3.298036434020000E-02   3.353499964390000E-02   3.409895633190000E-02
   3.467239106220000E-02   3.525546312610000E-02   3.584833449170000E-02
   3.645116984940000E-02   3.706413665730000E-02   3.768740518780000E-02
   3.832114857520000E-02   3.896554286340000E-02   3.962076705480000E-02
   4.028700316050000E-02   4.096443625030000E-02   4.165325450440000E-02
   4.235364926570000E-02   4.306581509270000E-02   4.378994981390000E-02
   4.452625458250000E-02   4.527493393230000E-02   4.603619583460000E-02
   4.681025175590000E-02   4.759731671680000E-02   4.839760935150000E-02
   4.921135196850000E-02   5.003877061290000E-02   5.088009512830000E-02
   5.173555922160000E-02   5.260540052700000E-02   5.348986067270000E-02
   5.438918534790000E-02   5.530362437070000E-02   5.623343175790000E-02
   5.717886579510000E-02   5.814018910920000E-02   5.911766874050000E-02
   6.011157621740000E-02   6.112218763180000E-02   6.214978371550000E-02
   6.319464991850000E-02   6.425707648800000E-02   6.533735854960000E-02
   6.643579618830001E-02   6.755269453290000E-02   6.868836384020000E-02
   6.984311958099999E-02   7.101728252820000E-02   7.221117884599999E-02
   7.342514017960000E-02   7.465950374860000E-02   7.591461243939999E-02
   7.719081490170000E-02   7.848846564410000E-02   7.980792513359999E-02
   8.114955989530000E-02   8.251374261400000E-02   8.390085223820000E-02
   8.531127408500000E-02   8.674539994730000E-02   8.820362820270000E-02
   8.968636392400001E-02   9.119401899160000E-02   9.272701220850001E-02
   9.428576941580000E-02   9.587072361170000E-02   9.748231507150000E-02
   9.912099146980000E-02   1.007872080050000E-01   1.024814275260000E-01
   1.042041206600000E-01   1.059557659440000E-01   1.077368499570000E-01
   1.095478674560000E-01   1.113893215140000E-01   1.132617236580000E-01
   1.151655940100000E-01   1.171014614360000E-01   1.190698636900000E-01
   1.210713475630000E-01   1.231064690350000E-01   1.251757934310000E-01
   1.272798955760000E-01   1.294193599570000E-01   1.315947808830000E-01
   1.338067626520000E-01   1.360559197180000E-01   1.383428768600000E-01
   1.406682693590000E-01   1.430327431730000E-01   1.454369551160000E-01
   1.478815730380000E-01   1.503672760170000E-01   1.528947545410000E-01
   1.554647107050000E-01   1.580778584010000E-01   1.607349235200000E-01
   1.634366441540000E-01   1.661837707970000E-01   1.689770665590000E-01
   1.718173073710000E-01   1.747052822090000E-01   1.776417933070000E-01
   1.806276563800000E-01   1.836637008540000E-01   1.867507700950000E-01
   1.898897216420000E-01   1.930814274450000E-01   1.963267741110000E-01
   1.996266631440000E-01   2.029820112040000E-01   2.063937503510000E-01
   2.098628283130000E-01   2.133902087460000E-01   2.169768715000000E-01
   2.206238128930000E-01   2.243320459880000E-01   2.281026008730000E-01
   2.319365249500000E-01   2.358348832210000E-01   2.397987585900000E-01
   2.438292521570000E-01   2.479274835310000E-01   2.520945911360000E-01
   2.563317325270000E-01   2.606400847170000E-01   2.650208444970000E-01
   2.694752287730000E-01   2.740044749040000E-01   2.786098410400000E-01
   2.832926064820000E-01   2.880540720270000E-01   2.928955603350000E-01
   2.978184162950000E-01   3.028240073990000E-01   3.079137241210000E-01
   3.130889803030000E-01   3.183512135510000E-01   3.237018856290000E-01
   3.291424828700000E-01   3.346745165860000E-01   3.402995234880000E-01
   3.460190661140000E-01   3.518347332640000E-01   3.577481404370000E-01
   3.637609302840000E-01   3.698747730650000E-01   3.760913671070000E-01
   3.824124392820000E-01   3.888397454850000E-01   3.953750711190000E-01
   4.020202315950000E-01   4.087770728340000E-01   4.156474717790000E-01
   4.226333369180000E-01   4.297366088150000E-01   4.369592606460000E-01
   4.443032987500000E-01   4.517707631850000E-01   4.593637282950000E-01
   4.670843032840000E-01   4.749346328080000E-01   4.829168975630000E-01
   4.910333148970000E-01   4.992861394220000E-01   5.076776636430000E-01
   5.162102185920000E-01   5.248861744790000E-01   5.337079413469999E-01
   5.426779697440000E-01   5.517987514010000E-01   5.610728199280000E-01
   5.705027515150000E-01   5.800911656480000E-01   5.898407258360000E-01
   5.997541403540000E-01   6.098341629920000E-01   6.200835938200000E-01
   6.305052799700001E-01   6.411021164189999E-01   6.518770468040000E-01
   6.628330642280000E-01   6.739732121010000E-01   6.853005849790000E-01
   6.968183294290000E-01   7.085296448970000E-01   7.204377846020000E-01
   7.325460564370000E-01   7.448578238890000E-01   7.573765069720000E-01
   7.701055831800000E-01   7.830485884470000E-01   7.962091181380000E-01
   8.095908280380000E-01   8.231974353760000E-01   8.370327198530000E-01
   8.511005246909999E-01   8.654047577050000E-01   8.799493923860000E-01
   8.947384690020000E-01   9.097760957250000E-01   9.250664497720000E-01
   9.406137785610000E-01   9.564224008930000E-01   9.724967081560000E-01
   9.888411655370000E-01   1.005460313270000E+00   1.022358767890000E+00
   1.039541223520000E+00   1.057012453180000E+00   1.074777310090000E+00
   1.092840729060000E+00   1.111207727820000E+00   1.129883408420000E+00
   1.148872958690000E+00   1.168181653610000E+00   1.187814856830000E+00
   1.207778022160000E+00   1.228076695040000E+00   1.248716514120000E+00
   1.269703212820000E+00   1.291042620910000E+00   1.312740666140000E+00
   1.334803375890000E+00   1.357236878840000E+00   1.380047406640000E+00
   1.403241295710000E+00   1.426824988940000E+00   1.450805037510000E+00
   1.475188102700000E+00   1.499980957740000E+00   1.525190489690000E+00
   1.550823701370000E+00   1.576887713270000E+00   1.603389765570000E+00
   1.630337220110000E+00   1.657737562480000E+00   1.685598404050000E+00
   1.713927484130000E+00   1.742732672090000E+00   1.772021969560000E+00
   1.801803512630000E+00   1.832085574160000E+00   1.862876566020000E+00
   1.894185041470000E+00   1.926019697490000E+00   1.958389377260000E+00
   1.991303072560000E+00   2.024769926300000E+00   2.058799235050000E+00
   2.093400451590000E+00   2.128583187620000E+00   2.164357216330000E+00
   2.200732475190000E+00   2.237719068660000E+00   2.275327271040000E+00
   2.313567529300000E+00   2.352450465970000E+00   2.391986882130000E+00
   2.432187760350000E+00   2.473064267820000E+00   2.514627759370000E+00
   2.556889780700000E+00   2.599862071520000E+00   2.643556568860000E+00
   2.687985410350000E+00   2.733160937640000E+00   2.779095699760000E+00
   2.825802456670000E+00   2.873294182770000E+00   2.921584070500000E+00
   2.970685534050000E+00   3.020612213010000E+00   3.071377976240000E+00
   3.122996925650000E+00   3.175483400180000E+00   3.228851979750000E+00
   3.283117489290000E+00   3.338295002920000E+00   3.394399848070000E+00
   3.451447609780000E+00   3.509454135030000E+00   3.568435537100000E+00
   3.628408200100000E+00   3.689388783490000E+00   3.751394226720000E+00
   3.814441753910000E+00   3.878548878670000E+00   3.943733408940000E+00
   4.010013451970000E+00   4.077407419310000E+00   4.145934031920000E+00
   4.215612325420000E+00   4.286461655350000E+00   4.358501702520000E+00
   4.431752478530000E+00   4.506234331280000E+00   4.581967950650000E+00
   4.658974374250000E+00   4.737274993250000E+00   4.816891558320000E+00
   4.897846185690000E+00   4.980161363270000E+00   5.063859956930000E+00
   5.148965216800000E+00   5.235500783780000E+00   5.323490696100000E+00
   5.412959395950000E+00   5.503931736330000E+00   5.596432987920000E+00
   5.690488846100000E+00   5.786125438110000E+00   5.883369330280000E+00
   5.982247535440000E+00   6.082787520370000E+00   6.185017213520000E+00
   6.288965012660000E+00   6.394659792850000E+00   6.502130914440000E+00
   6.611408231210000E+00   6.722522098660000E+00   6.835503382490000E+00
   6.950383467100000E+00   7.067194264360000E+00   7.185968222470000E+00
   7.306738334970000E+00   7.429538149880000E+00   7.554401779050000E+00
   7.681363907620000E+00   7.810459803670000E+00   7.941725328010000E+00
   8.075196944110001E+00   8.210911728290000E+00   8.348907379970001E+00
   8.489222232170000E+00   8.631895262130000E+00   8.776966102170000E+00
   8.924475050680000E+00   9.074463083310000E+00   9.226971864370000E+00
   9.382043758389999E+00   9.539721841900000E+00   9.700049915370000E+00
   9.863072515410000E+00   1.002883492710000E+01   1.019738319670000E+01
   1.036876414420000E+01   1.054302537650000E+01   1.072021530070000E+01
   1.090038313720000E+01   1.108357893400000E+01   1.126985357980000E+01
   1.145925881890000E+01   1.165184726500000E+01   1.184767241610000E+01
   1.204678866950000E+01   1.224925133630000E+01   1.245511665770000E+01
   1.266444181960000E+01   1.287728496940000E+01   1.309370523150000E+01
   1.331376272400000E+01   1.353751857540000E+01   1.376503494160000E+01
   1.399637502300000E+01   1.423160308230000E+01   1.447078446200000E+01
   1.471398560300000E+01   1.496127406280000E+01   1.521271853410000E+01
   1.546838886420000E+01   1.572835607440000E+01   1.599269237950000E+01
   1.626147120780000E+01   1.653476722190000E+01   1.681265633900000E+01
   1.709521575260000E+01   1.738252395290000E+01   1.767466074980000E+01
   1.797170729430000E+01   1.827374610110000E+01   1.858086107180000E+01
   1.889313751830000E+01   1.921066218580000E+01   1.953352327790000E+01
   1.986181048010000E+01   2.019561498550000E+01   2.053502951970000E+01
   2.088014836670000E+01   2.123106739510000E+01   2.158788408460000E+01
   2.195069755320000E+01   2.231960858490000E+01   2.269471965730000E+01
   2.307613497030000E+01   2.346396047510000E+01   2.385830390340000E+01
   2.425927479760000E+01   2.466698454120000E+01   2.508154638950000E+01
   2.550307550110000E+01   2.593168897020000E+01   2.636750585890000E+01
   2.681064723030000E+01   2.726123618190000E+01   2.771939788030000E+01
   2.818525959560000E+01   2.865895073680000E+01   2.914060288780000E+01
   2.963034984400000E+01   3.012832764930000E+01   3.063467463420000E+01
   3.114953145380000E+01   3.167304112720000E+01   3.220534907710000E+01
   3.274660317030000E+01   3.329695375860000E+01   3.385655372070000E+01
   3.442555850470000E+01   3.500412617110000E+01   3.559241743680000E+01
   3.619059571990000E+01   3.679882718480000E+01   3.741728078870000E+01
   3.804612832820000E+01   3.868554448720000E+01   3.933570688550000E+01
   3.999679612780000E+01   4.066899585430000E+01   4.135249279150000E+01
   4.204747680400000E+01   4.275414094750000E+01   4.347268152210000E+01
   4.420329812690000E+01   4.494619371580000E+01   4.570157465340000E+01
   4.646965077260000E+01   4.725063543280000E+01   4.804474557930000E+01
   4.885220180320000E+01   4.967322840320000E+01   5.050805344750000E+01
   5.135690883730000E+01   5.222003037130000E+01   5.309765781090000E+01
   5.399003494720000E+01   5.489740966850000E+01   5.582003402910000E+01
   5.675816431960000E+01   5.771206113770000E+01   5.868198946080000E+01
   5.966821871980000E+01   6.067102287360000E+01   6.169068048530000E+01
   6.272747479970000E+01   6.378169382190000E+01   6.485363039720001E+01
   6.594358229280000E+01   6.705185228009999E+01   6.817874821900000E+01
   6.932458314330000E+01   7.048967534780000E+01   7.167434847700000E+01
   7.287893161410000E+01   7.410375937340000E+01   7.534917199269999E+01
   7.661551542799999E+01   7.790314144940000E+01   7.921240773910000E+01
   8.054367799060000E+01   8.189732200989999E+01   8.327371581769999E+01
   8.467324175470000E+01   8.609628858690000E+01   8.754325161430000E+01
   8.901453278040000E+01   9.051054078390000E+01   9.203169119220000E+01
   9.357840655680000E+01   9.515111653080000E+01   9.675025798820000E+01
   9.837627514530000E+01   1.000296196840000E+02   1.017107508770000E+02
   1.034201357170000E+02   1.051582490430000E+02   1.069255736750000E+02
   1.087226005500000E+02   1.105498288510000E+02   1.124077661550000E+02
   1.142969285680000E+02   1.162178408680000E+02   1.181710366550000E+02
   1.201570584950000E+02   1.221764580750000E+02   1.242297963510000E+02
   1.263176437090000E+02   1.284405801190000E+02   1.305991953000000E+02
   1.327940888810000E+02   1.350258705680000E+02   1.372951603160000E+02
   1.396025884970000E+02   1.419487960790000E+02   1.443344348000000E+02
   1.467601673540000E+02   1.492266675700000E+02   1.517346206040000E+02
   1.542847231250000E+02   1.568776835120000E+02   1.595142220480000E+02
   1.621950711210000E+02   1.649209754300000E+02   1.676926921870000E+02
   1.705109913320000E+02   1.733766557430000E+02   1.762904814570000E+02
   1.792532778890000E+02   1.822658680560000E+02   1.853290888100000E+02
   1.884437910630000E+02   1.916108400310000E+02   1.948311154700000E+02
   1.981055119230000E+02   2.014349389640000E+02
    </PP_R>
    <PP_RAB>
   3.534426223080000E-07   3.593826957910000E-07   3.654226001120000E-07
   3.715640130600000E-07   3.778086406230000E-07   3.841582174600000E-07
   3.906145073830000E-07   3.971793038480000E-07   4.038544304510000E-07
   4.106417414370000E-07   4.175431222140000E-07   4.245604898760000E-07
   4.316957937380000E-07   4.389510158740000E-07   4.463281716700000E-07
   4.538293103840000E-07   4.614565157130000E-07   4.692119063750000E-07
   4.770976366950000E-07   4.851158972040000E-07   4.932689152480000E-07
   5.015589556070000E-07   5.099883211230000E-07   5.185593533410000E-07
   5.272744331580000E-07   5.361359814860000E-07   5.451464599230000E-07
   5.543083714370000E-07   5.636242610630000E-07   5.730967166090000E-07
   5.827283693710001E-07   5.925218948720000E-07   6.024800135990000E-07
   6.126054917580000E-07   6.229011420490000E-07   6.333698244400000E-07
   6.440144469670000E-07   6.548379665359999E-07   6.658433897509999E-07
   6.770337737450000E-07   6.884122270290000E-07   6.999819103579999E-07
   7.117460376080000E-07   7.237078766670000E-07   7.358707503460000E-07
   7.482380372980000E-07   7.608131729600001E-07   7.735996505070000E-07
   7.866010218200000E-07   7.998208984750000E-07   8.132629527450000E-07
   8.269309186190000E-07   8.408285928440000E-07   8.549598359740000E-07
   8.693285734440000E-07   8.839387966640000E-07   8.987945641220000E-07
   9.139000025160000E-07   9.292593078980000E-07   9.448767468410000E-07
   9.607566576229999E-07   9.769034514310001E-07   9.933216135920000E-07
   1.010015704810000E-06   1.026990362440000E-06   1.044250301770000E-06
   1.061800317350000E-06   1.079645284290000E-06   1.097790159640000E-06
   1.116239983760000E-06   1.134999881710000E-06   1.154075064710000E-06
   1.173470831540000E-06   1.193192570030000E-06   1.213245758580000E-06
   1.233635967640000E-06   1.254368861290000E-06   1.275450198800000E-06
   1.296885836230000E-06   1.318681728070000E-06   1.340843928860000E-06
   1.363378594930000E-06   1.386291986040000E-06   1.409590467160000E-06
   1.433280510260000E-06   1.457368696060000E-06   1.481861715860000E-06
   1.506766373440000E-06   1.532089586930000E-06   1.557838390710000E-06
   1.584019937390000E-06   1.610641499800000E-06   1.637710472970000E-06
   1.665234376260000E-06   1.693220855360000E-06   1.721677684470000E-06
   1.750612768450000E-06   1.780034145020000E-06   1.809949986960000E-06
   1.840368604420000E-06   1.871298447220000E-06   1.902748107180000E-06
   1.934726320510000E-06   1.967241970260000E-06   2.000304088760000E-06
   2.033921860150000E-06   2.068104622910000E-06   2.102861872480000E-06
   2.138203263860000E-06   2.174138614350000E-06   2.210677906200000E-06
   2.247831289470000E-06   2.285609084780000E-06   2.324021786190000E-06
   2.363080064150000E-06   2.402794768440000E-06   2.443176931170000E-06
   2.484237769870000E-06   2.525988690590000E-06   2.568441291070000E-06
   2.611607363990000E-06   2.655498900180000E-06   2.700128092040000E-06
   2.745507336840000E-06   2.791649240220000E-06   2.838566619680000E-06
   2.886272508110000E-06   2.934780157470000E-06   2.984103042400000E-06
   3.034254864040000E-06   3.085249553760000E-06   3.137101277090000E-06
   3.189824437600000E-06   3.243433680980000E-06   3.297943899010000E-06
   3.353370233770000E-06   3.409728081820000E-06   3.467033098490000E-06
   3.525301202210000E-06   3.584548578920000E-06   3.644791686630000E-06
   3.706047259900000E-06   3.768332314580000E-06   3.831664152460000E-06
   3.896060366140000E-06   3.961538843860000E-06   4.028117774500000E-06
   4.095815652660000E-06   4.164651283720000E-06   4.234643789130000E-06
   4.305812611720000E-06   4.378177521060000E-06   4.451758618960000E-06
   4.526576345110000E-06   4.602651482690000E-06   4.680005164160000E-06
   4.758658877160000E-06   4.838634470440000E-06   4.919954159970000E-06
   5.002640535070000E-06   5.086716564710000E-06   5.172205603870000E-06
   5.259131400080000E-06   5.347518099930000E-06   5.437390255870000E-06
   5.528772832950000E-06   5.621691215810000E-06   5.716171215710000E-06
   5.812239077700000E-06   5.909921487930000E-06   6.009245581010000E-06
   6.110238947620000E-06   6.212929642110000E-06   6.317346190340000E-06
   6.423517597580000E-06   6.531473356570000E-06   6.641243455710000E-06
   6.752858387400000E-06   6.866349156510000E-06   6.981747288980000E-06
   7.099084840590000E-06   7.218394405870000E-06   7.339709127110000E-06
   7.463062703640000E-06   7.588489401130000E-06   7.716024061140000E-06
   7.845702110780001E-06   7.977559572560001E-06   8.111633074420000E-06
   8.247959859840000E-06   8.386577798250000E-06   8.527525395540000E-06
   8.670841804720000E-06   8.816566836810000E-06   8.964740971940000E-06
   9.115405370550000E-06   9.268601884810001E-06   9.424373070299999E-06
   9.582762197810000E-06   9.743813265320000E-06   9.907571010270001E-06
   1.007408092200000E-05   1.024338925430000E-05   1.041554303840000E-05