<UPF version="2.0.1">
  <PP_INFO>
    Generated by new atomic code, or converted to UPF format
    Author: 
    Generation date: 
    Pseudopotential type: US
    Element: Te
    Functional: SLA  PZ   NOGX NOGC
    Suggested minimum cutoff for wavefunctions:   0. Ry
    Suggested minimum cutoff for charge density:   0. Ry
    The Pseudo was generated with a Non-Relativistic Calculation
    L component and cutoff radius for Local Potential:  0   0.0000
    Valence configuration: 
    nl pn  l   occ       Rcut    Rcut US       E pseu
    5S  1  0  2.00      0.000      0.000     0.000000
    5P  2  1  4.00      0.000      0.000     0.000000
    Generation configuration: not available.
  </PP_INFO>
    <!-- END OF HUMAN READABLE SECTION -->
  <PP_HEADER generated="Generated by new atomic code, or converted to UPF format" author="" date="" comment="" element="Te" pseudo_type="US" relativistic="no" is_ultrasoft="true" is_paw="false" is_coulomb="false" has_so="false" has_wfc="false" has_gipaw="false" paw_as_gipaw="false" core_correction="true" functional="SLA  PZ   NOGX NOGC" z_valence="6.0000000000000000" total_psenergy="-26.261199131800002" wfc_cutoff="0.0000000000000000" rho_cutoff="0.0000000000000000" l_max="2" l_max_rho="0" l_local="0" mesh_size="891" number_of_wfc="2" number_of_proj="5"/>
  <PP_MESH>
    <PP_R>
   0.000000000000000E+00   1.100394449280000E-09   2.228645516670000E-09
   3.385458395810000E-09   4.571556132420000E-09   5.787680076170000E-09
   7.034590344140000E-09   8.313066295819999E-09   9.623907020310000E-09
   1.096793183570000E-08   1.234598080130000E-08   1.375891524260000E-08
   1.520761828950000E-08   1.669299542870000E-08   1.821597506920000E-08
   1.977750912280000E-08   2.137857359920000E-08   2.302016921580000E-08
   2.470332202330000E-08   2.642908404690000E-08   2.819853394420000E-08
   3.001277767890000E-08   3.187294921240000E-08   3.378021121240000E-08
   3.573575577990000E-08   3.774080519380000E-08   3.979661267520000E-08
   4.190446317080000E-08   4.406567415580000E-08   4.628159645730000E-08
   4.855361509900000E-08   5.088315016640000E-08   5.327165769480000E-08
   5.572063057920000E-08   5.823159950730000E-08   6.080613391640000E-08
   6.344584297440000E-08   6.615237658540000E-08   6.892742642090000E-08
   7.177272697740000E-08   7.469005666049999E-08   7.768123889610000E-08
   8.074814327060001E-08   8.389268669890000E-08   8.711683462300000E-08
   9.042260224050000E-08   9.381205576360000E-08   9.728731371120000E-08
   1.008505482330000E-07   1.045039864650000E-07   1.082499119270000E-07
   1.120906659440000E-07   1.160286491110000E-07   1.200663227970000E-07
   1.242062106790000E-07   1.284509003210000E-07   1.328030447940000E-07
   1.372653643280000E-07   1.418406480190000E-07   1.465317555680000E-07
   1.513416190700000E-07   1.562732448470000E-07   1.613297153240000E-07
   1.665141909610000E-07   1.718299122230000E-07   1.772802016100000E-07
   1.828684657300000E-07   1.885981974290000E-07   1.944729779770000E-07
   2.004964793030000E-07   2.066724662900000E-07   2.130047991330000E-07
   2.194974357440000E-07   2.261544342340000E-07   2.329799554430000E-07
   2.399782655440000E-07   2.471537387090000E-07   2.545108598420000E-07
   2.620542273830000E-07   2.697885561820000E-07   2.777186804470000E-07
   2.858495567640000E-07   2.941862671950000E-07   3.027340224550000E-07
   3.114981651690000E-07   3.204841732130000E-07   3.296976631330000E-07
   3.391443936610000E-07   3.488302693110000E-07   3.587613440710000E-07
   3.689438251850000E-07   3.793840770350000E-07   3.900886251200000E-07
   4.010641601290000E-07   4.123175421300000E-07   4.238558048530000E-07
   4.356861600870000E-07   4.478160021900000E-07   4.602529127070000E-07
   4.730046651130000E-07   4.860792296690000E-07   4.994847784010000E-07
   5.132296902160000E-07   5.273225561300000E-07   5.417721846430000E-07
   5.565876072430000E-07   5.717780840520000E-07   5.873531096120000E-07
   6.033224188220000E-07   6.196959930189999E-07   6.364840662200001E-07
   6.536971315170000E-07   6.713459476370000E-07   6.894415456650000E-07
   7.079952359370000E-07   7.270186151150000E-07   7.465235734290000E-07
   7.665223021140000E-07   7.870273010260000E-07   8.080513864570000E-07
   8.296076991440000E-07   8.517097124850000E-07   8.743712409580000E-07
   8.976064487550000E-07   9.214298586380000E-07   9.458563610140000E-07
   9.709012232409999E-07   9.965800991740001E-07   1.022909038950000E-06
   1.049904499000000E-06   1.077583352380000E-06   1.105962899270000E-06
   1.135060877810000E-06   1.164895475190000E-06   1.195485338990000E-06
   1.226849588880000E-06   1.259007828540000E-06   1.291980157910000E-06
   1.325787185770000E-06   1.360450042610000E-06   1.395990393860000E-06
   1.432430453380000E-06   1.469792997400000E-06   1.508101378720000E-06
   1.547379541340000E-06   1.587652035370000E-06   1.628944032450000E-06
   1.671281341410000E-06   1.714690424450000E-06   1.759198413650000E-06
   1.804833127970000E-06   1.851623090580000E-06   1.899597546730000E-06
   1.948786482030000E-06   1.999220641140000E-06   2.050931547080000E-06
   2.103951520830000E-06   2.158313701610000E-06   2.214052067540000E-06
   2.271201456930000E-06   2.329797589990000E-06   2.389877091230000E-06
   2.451477512280000E-06   2.514637355420000E-06   2.579396097600000E-06
   2.645794215140000E-06   2.713873209030000E-06   2.783675630850000E-06
   2.855245109390000E-06   2.928626377910000E-06   3.003865302090000E-06
   3.081008908700000E-06   3.160105415010000E-06   3.241204258910000E-06
   3.324356129820000E-06   3.409613000360000E-06   3.497028158860000E-06
   3.586656242630000E-06   3.678553272140000E-06   3.772776686030000E-06
   3.869385376990000E-06   3.968439728620000E-06   4.070001653090000E-06
   4.174134629920000E-06   4.280903745610000E-06   4.390375734340000E-06
   4.502619019650000E-06   4.617703757250000E-06   4.735701878860000E-06
   4.856687137150000E-06   4.980735151820000E-06   5.107923456940000E-06
   5.238331549330000E-06   5.372040938300000E-06   5.509135196560000E-06
   5.649700012500000E-06   5.793823243690000E-06   5.941594971850000E-06
   6.093107559120000E-06   6.248455705800000E-06   6.407736509530000E-06
   6.571049526010000E-06   6.738496831180000E-06   6.910183085060000E-06
   7.086215597160000E-06   7.266704393510000E-06   7.451762285500000E-06
   7.641504940320000E-06   7.836050953319999E-06   8.035521922090001E-06
   8.240042522480001E-06   8.449740586510000E-06   8.664747182300000E-06
   8.885196695990000E-06   9.111226915680000E-06   9.342979117620001E-06
   9.580598154489999E-06   9.824232545919999E-06   1.007403457130000E-05
   1.033016036510000E-05   1.059277001420000E-05   1.086202765830000E-05
   1.113810159210000E-05   1.142116437070000E-05   1.171139291770000E-05
   1.200896863540000E-05   1.231407751820000E-05   1.262691026920000E-05
   1.294766241900000E-05   1.327653444810000E-05   1.361373191220000E-05
   1.395946557080000E-05   1.431395151860000E-05   1.467741132100000E-05
   1.505007215200000E-05   1.543216693690000E-05   1.582393449730000E-05
   1.622561970070000E-05   1.663747361350000E-05   1.705975365770000E-05
   1.749272377210000E-05   1.793665457710000E-05   1.839182354400000E-05
   1.885851516810000E-05   1.933702114700000E-05   1.982764056230000E-05
   2.033068006730000E-05   2.084645407800000E-05   2.137528497000000E-05
   2.191750327970000E-05   2.247344791120000E-05   2.304346634820000E-05
   2.362791487050000E-05   2.422715877760000E-05   2.484157261650000E-05
   2.547154041580000E-05   2.611745592580000E-05   2.677972286480000E-05
   2.745875517120000E-05   2.815497726220000E-05   2.886882429940000E-05
   2.960074246040000E-05   3.035118921790000E-05   3.112063362540000E-05
   3.190955661090000E-05   3.271845127680000E-05   3.354782320870000E-05
   3.439819079100000E-05   3.527008553120000E-05   3.616405239180000E-05
   3.708065013120000E-05   3.802045165280000E-05   3.898404436320000E-05
   3.997203053930000E-05   4.098502770440000E-05   4.202366901490000E-05
   4.308860365540000E-05   4.418049724460000E-05   4.530003225160000E-05
   4.644790842230000E-05   4.762484321650000E-05   4.883157225700000E-05
   5.006884978850000E-05   5.133744914990000E-05   5.263816325690000E-05
   5.397180509840000E-05   5.533920824390000E-05   5.674122736470000E-05
   5.817873876860000E-05   5.965264094700000E-05   6.116385513660000E-05
   6.271332589560000E-05   6.430202169350001E-05   6.593093551710000E-05
   6.760108549050001E-05   6.931351551170000E-05   7.106929590530000E-05
   7.286952409120000E-05   7.471532527060000E-05   7.660785312930000E-05
   7.854829055880000E-05   8.053785039570000E-05   8.257777617970000E-05
   8.466934293079999E-05   8.681385794630001E-05   8.901266161780000E-05
   9.126712826930000E-05   9.357866701580001E-05   9.594872264430000E-05
   9.837877651660000E-05   1.008703474960000E-04   1.034249928940000E-04
   1.060443094490000E-04   1.087299343180000E-04   1.114835461050000E-04
   1.143068659050000E-04   1.172016583870000E-04   1.201697328890000E-04
   1.232129445550000E-04   1.263331954910000E-04   1.295324359550000E-04
   1.328126655780000E-04   1.361759346090000E-04   1.396243452000000E-04
   1.431600527210000E-04   1.467852671050000E-04   1.505022542270000E-04
   1.543133373270000E-04   1.582208984540000E-04   1.622273799620000E-04
   1.663352860330000E-04   1.705471842410000E-04   1.748657071590000E-04
   1.792935540060000E-04   1.838334923300000E-04   1.884883597390000E-04
   1.932610656770000E-04   1.981545932420000E-04   2.031720010470000E-04
   2.083164251350000E-04   2.135910809390000E-04   2.189992652910000E-04
   2.245443584810000E-04   2.302298263730000E-04   2.360592225700000E-04
   2.420361906350000E-04   2.481644663670000E-04   2.544478801370000E-04
   2.608903592840000E-04   2.674959305680000E-04   2.742687226840000E-04
   2.812129688500000E-04   2.883330094440000E-04   2.956332947230000E-04
   3.031183876050000E-04   3.107929665150000E-04   3.186618283150000E-04
   3.267298912990000E-04   3.350021982710000E-04   3.434839196910000E-04
   3.521803569100000E-04   3.610969454860000E-04   3.702392585770000E-04
   3.796130104250000E-04   3.892240599310000E-04   3.990784143130000E-04
   4.091822328650000E-04   4.195418308010000E-04   4.301636832070000E-04
   4.410544290870000E-04   4.522208755120000E-04   4.636700018730000E-04
   4.754089642490000E-04   4.874450998710000E-04   4.997859317180000E-04
   5.124391732110000E-04   5.254127330360000E-04   5.387147200930000E-04
   5.523534485540000E-04   5.663374430710000E-04   5.806754440940000E-04
   5.953764133420000E-04   6.104495393970000E-04   6.259042434560000E-04
   6.417501852100000E-04   6.579972688900000E-04   6.746556494509999E-04
   6.917357389240000E-04   7.092482129200000E-04   7.272040173060000E-04
   7.456143750450000E-04   7.644907932080000E-04   7.838450701720000E-04
   8.036893029910000E-04   8.240358949540000E-04   8.448975633460000E-04
   8.662873473880000E-04   8.882186163900000E-04   9.107050781100000E-04
   9.337607873190000E-04   9.574001545860000E-04   9.816379552840000E-04
   1.006489338830000E-03   1.031969838140000E-03   1.058095379370000E-03
   1.084882291810000E-03   1.112347318180000E-03   1.140507625000000E-03
   1.169380813380000E-03   1.198984930010000E-03   1.229338478410000E-03
   1.260460430550000E-03   1.292370238660000E-03   1.325087847410000E-03
   1.358633706370000E-03   1.393028782790000E-03   1.428294574710000E-03
   1.464453124410000E-03   1.501527032150000E-03   1.539539470330000E-03
   1.578514197970000E-03   1.618475575540000E-03   1.659448580190000E-03
   1.701458821400000E-03   1.744532556920000E-03   1.788696709250000E-03
   1.833978882430000E-03   1.880407379270000E-03   1.928011219100000E-03
   1.976820155880000E-03   2.026864696780000E-03   2.078176121260000E-03
   2.130786500630000E-03   2.184728718100000E-03   2.240036489310000E-03
   2.296744383410000E-03   2.354887844680000E-03   2.414503214690000E-03
   2.475627754970000E-03   2.538299670350000E-03   2.602558132830000E-03
   2.668443306030000E-03   2.735996370330000E-03   2.805259548590000E-03
   2.876276132560000E-03   2.949090509910000E-03   3.023748192000000E-03
   3.100295842310000E-03   3.178781305620000E-03   3.259253637890000E-03
   3.341763136940000E-03   3.426361373910000E-03   3.513101225450000E-03
   3.602036906780000E-03   3.693224005600000E-03   3.786719516820000E-03
   3.882581878180000E-03   3.980871006760000E-03   4.081648336490000E-03
   4.184976856460000E-03   4.290921150370000E-03   4.399547436840000E-03
   4.510923610850000E-03   4.625119286130000E-03   4.742205838700000E-03
   4.862256451450000E-03   4.985346159930000E-03   5.111551899220000E-03
   5.240952552010000E-03   5.373628997920000E-03   5.509664164050000E-03
   5.649143076810000E-03   5.792152915050000E-03   5.938783064590000E-03
   6.089125174030000E-03   6.243273212100000E-03   6.401323526320000E-03
   6.563374903300000E-03   6.729528630420000E-03   6.899888559160000E-03
   7.074561170040000E-03   7.253655639110000E-03   7.437283906250000E-03
   7.625560745110000E-03   7.818603834830001E-03   8.016533833640000E-03
   8.219474454219999E-03   8.427552541069999E-03   8.640898149770000E-03
   8.859644628259999E-03   9.083928700220000E-03   9.313890550500000E-03
   9.549673912730001E-03   9.791426159199999E-03   1.003929839290000E-02
   1.029344554210000E-02   1.055402645700000E-02   1.082120400920000E-02
   1.109514519330000E-02   1.137602123150000E-02   1.166400768040000E-02
   1.195928454110000E-02   1.226203637100000E-02   1.257245240000000E-02
   1.289072664820000E-02   1.321705804730000E-02   1.355165056520000E-02
   1.389471333290000E-02   1.424646077600000E-02   1.460711274800000E-02
   1.497689466810000E-02   1.535603766210000E-02   1.574477870670000E-02
   1.614336077770000E-02   1.655203300180000E-02   1.697105081260000E-02
   1.740067610970000E-02   1.784117742310000E-02   1.829283008020000E-02
   1.875591637880000E-02   1.923072576290000E-02   1.971755500380000E-02
   2.021670838550000E-02   2.072849789530000E-02   2.125324341820000E-02
   2.179127293730000E-02   2.234292273840000E-02   2.290853762080000E-02
   2.348847111210000E-02   2.408308568970000E-02   2.469275300690000E-02
   2.531785412570000E-02   2.595877975470000E-02   2.661593049330000E-02
   2.728971708200000E-02   2.798056065940000E-02   2.868889302520000E-02
   2.941515691030000E-02   3.015980625310000E-02   3.092330648380000E-02
   3.170613481480000E-02   3.250878053940000E-02   3.333174533730000E-02
   3.417554358820000E-02   3.504070269350000E-02   3.592776340580000E-02
   3.683728016700000E-02   3.776982145460000E-02   3.872597013730000E-02
   3.970632383920000E-02   4.071149531310000E-02   4.174211282410000E-02
   4.279882054160000E-02   4.388227894230000E-02   4.499316522300000E-02
   4.613217372380000E-02   4.730001636210000E-02   4.849742307750000E-02
   4.972514228820000E-02   5.098394135870000E-02   5.227460707940000E-02
   5.359794615840000E-02   5.495478572560000E-02   5.634597385010000E-02
   5.777238006960000E-02   5.923489593440000E-02   6.073443556460000E-02
   6.227193622130000E-02   6.384835889240000E-02   6.546468889350000E-02
   6.712193648330000E-02   6.882113749560000E-02   7.056335398630000E-02
   7.234967489749999E-02   7.418121673780000E-02   7.605912428059999E-02
   7.798457127910000E-02   7.995876120049999E-02   8.198292797770000E-02
   8.405833678080001E-02   8.618628480790000E-02   8.836810209569999E-02
   9.060515235119999E-02   9.289883380350000E-02   9.525058007820000E-02
   9.766186109330000E-02   1.001341839780000E-01   1.026690940140000E-01
   1.052681756040000E-01   1.079330532570000E-01   1.106653926090000E-01
   1.134669014610000E-01   1.163393308480000E-01   1.192844761300000E-01
   1.223041781210000E-01   1.254003242310000E-01   1.285748496530000E-01
   1.318297385690000E-01   1.351670253900000E-01   1.385887960290000E-01
   1.420971892040000E-01   1.456943977750000E-01   1.493826701150000E-01
   1.531643115140000E-01   1.570416856200000E-01   1.610172159190000E-01
   1.650933872470000E-01   1.692727473430000E-01   1.735579084440000E-01
   1.779515489150000E-01   1.824564149240000E-01   1.870753221580000E-01
   1.918111575860000E-01   1.966668812590000E-01   2.016455281620000E-01
   2.067502101110000E-01   2.119841176980000E-01   2.173505222880000E-01
   2.228527780560000E-01   2.284943240920000E-01   2.342786865460000E-01
   2.402094808320000E-01   2.462904138910000E-01   2.525252865030000E-01
   2.589179956670000E-01   2.654725370330000E-01   2.721930074050000E-01
   2.790836072930000E-01   2.861486435490000E-01   2.933925320490000E-01
   3.008198004590000E-01   3.084350910640000E-01   3.162431636690000E-01
   3.242488985720000E-01   3.324572996200000E-01   3.408734973290000E-01
   3.495027520980000E-01   3.583504574920000E-01   3.674221436140000E-01
   3.767234805630000E-01   3.862602819780000E-01   3.960385086710000E-01
   4.060642723500000E-01   4.163438394460000E-01   4.268836350210000E-01
   4.376902467920000E-01   4.487704292430000E-01   4.601311078470000E-01
   4.717793834000000E-01   4.837225364520000E-01   4.959680318630000E-01
   5.085235234660000E-01   5.213968588520000E-01   5.345960842760000E-01
   5.481294496810000E-01   5.620054138640000E-01   5.762326497510000E-01
   5.908200498300000E-01   6.057767317000000E-01   6.211120437750000E-01
   6.368355711220000E-01   6.529571414599999E-01   6.694868312940000E-01
   6.864349722180000E-01   7.038121573720000E-01   7.216292480630000E-01
   7.398973805520001E-01   7.586279730170000E-01   7.778327326870000E-01
   7.975236631630001E-01   8.177130719180000E-01   8.384135779880000E-01
   8.596381198650000E-01   8.813999635770000E-01   9.037127109860000E-01
   9.265903082840000E-01   9.500470547150000E-01   9.740976115100000E-01
   9.987570110480000E-01   1.024040666260000E+00   1.049964380250000E+00
   1.076544356180000E+00   1.103797207410000E+00   1.131739967850000E+00
   1.160390102640000E+00   1.189765519040000E+00   1.219884577650000E+00
   1.250766103860000E+00   1.282429399630000E+00   1.314894255540000E+00
   1.348180963200000E+00   1.382310327870000E+00   1.417303681520000E+00
   1.453182896140000E+00   1.489970397400000E+00   1.527689178690000E+00
   1.566362815470000E+00   1.606015480030000E+00   1.646671956570000E+00
   1.688357656720000E+00   1.731098635390000E+00   1.774921607080000E+00
   1.819853962590000E+00   1.865923786090000E+00   1.913159872720000E+00
   1.961591746580000E+00   2.011249679170000E+00   2.062164708300000E+00
   2.114368657530000E+00   2.167894156030000E+00   2.222774658980000E+00
   2.279044468470000E+00   2.336738754970000E+00   2.395893579290000E+00
   2.456545915110000E+00   2.518733672120000E+00   2.582495719700000E+00
   2.647871911200000E+00   2.714903108870000E+00   2.783631209380000E+00
   2.854099170040000E+00   2.926351035620000E+00   3.000431965890000E+00
   3.076388263830000E+00   3.154267404610000E+00   3.234118065220000E+00
   3.315990154930000E+00   3.399934846460000E+00   3.486004607980000E+00
   3.574253235880000E+00   3.664735888430000E+00   3.757509120240000E+00
   3.852630917590000E+00   3.950160734700000E+00   4.050159530890000E+00
   4.152689808660000E+00   4.257815652770000E+00   4.365602770290000E+00
   4.476118531680000E+00   4.589432012890000E+00   4.705614038540000E+00
   4.824737226160000E+00   4.946876031640000E+00   5.072106795700000E+00
   5.200507791650000E+00   5.332159274280000E+00   5.467143530070000E+00
   5.605544928560000E+00   5.747449975130000E+00   5.892947365060000E+00
   6.042128038950000E+00   6.195085239580000E+00   6.351914570180000E+00
   6.512714054180000E+00   6.677584196510000E+00   6.846628046350000E+00
   7.019951261630000E+00   7.197662175000000E+00   7.379871861550000E+00
   7.566694208280000E+00   7.758245985240000E+00   7.954646918510000E+00
   8.156019765090001E+00   8.362490389540000E+00   8.574187842730000E+00
   8.791244442469999E+00   9.013795856190001E+00   9.241981185780000E+00
   9.475943054480000E+00   9.715827696090001E+00   9.961785046310000E+00
   1.021396883650000E+01   1.047253668970000E+01   1.073765021930000E+01
   1.100947512990000E+01   1.128818132080000E+01   1.157394299250000E+01
   1.186693875540000E+01   1.216735174140000E+01   1.247536971830000E+01
   1.279118520740000E+01   1.311499560370000E+01   1.344700329910000E+01
   1.378741580950000E+01   1.413644590350000E+01   1.449431173640000E+01
   1.486123698610000E+01   1.523745099260000E+01   1.562318890210000E+01
   1.601869181320000E+01   1.642420692820000E+01   1.683998770720000E+01
   1.726629402670000E+01   1.770339234210000E+01   1.815155585410000E+01
   1.861106467930000E+01   1.908220602590000E+01   1.956527437240000E+01
   2.006057165230000E+01   2.056840744260000E+01   2.108909915710000E+01
   2.162297224510000E+01   2.217036039470000E+01   2.273160574120000E+01
   2.330705908140000E+01   2.389708009220000E+01   2.450203755600000E+01
   2.512230959090000E+01   2.575828388720000E+01   2.641035794940000E+01
   2.707893934510000E+01   2.776444595940000E+01   2.846730625620000E+01
   2.918795954620000E+01   2.992685626110000E+01   3.068445823540000E+01
   3.146123899490000E+01   3.225768405300000E+01   3.307429121380000E+01
   3.391157088320000E+01   3.477004638840000E+01   3.565025430440000E+01
   3.655274479000000E+01   3.747808193090000E+01   3.842684409310000E+01
   3.939962428380000E+01   4.039703052230000E+01   4.141968621990000E+01
   4.246823056970000E+01   4.354331894620000E+01   4.464562331440000E+01
   4.577583265060000E+01   4.693465337240000E+01   4.812280978040000E+01
   4.934104451100000E+01   5.059011900070000E+01   5.187081396170000E+01
   5.318392986990000E+01   5.453028746570000E+01   5.591072826620000E+01
   5.732611509190000E+01   5.877733260580000E+01   6.026528786590000E+01
   6.179091089280000E+01   6.335515525050000E+01   6.495899864259999E+01
   6.660344352340000E+01   6.828951772470000E+01   7.001827509749999E+01
   7.179079617159999E+01   7.360818883040000E+01   7.547158900330000E+01
   7.738216137620000E+01   7.934110011900000E+01   8.134962963210000E+01
   8.340900531200001E+01   8.552051433539999E+01   8.768547646419999E+01
   8.990524487019999E+01   9.218120698100000E+01   9.451478534690000E+01
   9.690743853040000E+01   9.936066201760001E+01   1.018759891530000E+02
   1.044549920980000E+02   1.070992828140000E+02   1.098105140670000E+02
   1.125903804670000E+02   1.154406195190000E+02   1.183630127170000E+02
   1.213593866510000E+02   1.244316141510000E+02   1.275816154620000E+02
   1.308113594350000E+02   1.341228647660000E+02   1.375182012540000E+02
   1.409994910940000E+02   1.445689102060000E+02   1.482286895930000E+02
   1.519811167370000E+02   1.558285370250000E+02   1.597733552220000E+02
   1.638180369670000E+02   1.679651103180000E+02   1.722171673310000E+02
   1.765768656800000E+02   1.810469303170000E+02   1.856301551800000E+02
   1.903294049320000E+02   1.951476167590000E+02   2.000878021980000E+02
    </PP_R>
    <PP_RAB>
   1.086696830280000E-09   1.114206691510000E-09   1.142412968200000E-09
   1.171333290170000E-09   1.200985733590000E-09   1.231388832180000E-09
   1.262561588880000E-09   1.294523487670000E-09   1.327294505790000E-09
   1.360895126170000E-09   1.395346350310000E-09   1.430669711340000E-09
   1.466887287520000E-09   1.504021716000000E-09   1.542096207010000E-09
   1.581134558350000E-09   1.621161170260000E-09   1.662201060670000E-09
   1.704279880860000E-09   1.747423931450000E-09   1.791660178880000E-09
   1.837016272250000E-09   1.883520560590000E-09   1.931202110590000E-09
   1.980090724780000E-09   2.030216960120000E-09   2.081612147160000E-09
   2.134308409550000E-09   2.188338684170000E-09   2.243736741710000E-09
   2.300537207750000E-09   2.358775584440000E-09   2.418488272650000E-09
   2.479712594760000E-09   2.542486817960000E-09   2.606850178190000E-09
   2.672842904640000E-09   2.740506244910000E-09   2.809882490800000E-09
   2.881015004720000E-09   2.953948246790000E-09   3.028727802680000E-09
   3.105400412040000E-09   3.184013997750000E-09   3.264617695860000E-09
   3.347261886290000E-09   3.431998224370000E-09   3.518879673060000E-09
   3.607960536090000E-09   3.699296491910000E-09   3.792944628460000E-09
   3.888963478870000E-09   3.987413058060000E-09   4.088354900200000E-09
   4.191852097250000E-09   4.297969338310000E-09   4.406772950120000E-09
   4.518330938480000E-09   4.632713030750000E-09   4.749990719480000E-09
   4.870237307030000E-09   4.993527951440000E-09   5.119939713380000E-09
   5.249551604300000E-09   5.382444635860000E-09   5.518701870530000E-09
   5.658408473520000E-09   5.801651766010000E-09   5.948521279710000E-09
   6.099108812840000E-09   6.253508487530000E-09   6.411816808590000E-09
   6.574132723890000E-09   6.740557686130000E-09   6.911195716360000E-09
   7.086153468890000E-09   7.265540298010000E-09   7.449468326330000E-09
   7.638052514850000E-09   7.831410734840000E-09   8.029663841460000E-09
   8.232935749380000E-09   8.441353510150000E-09   8.655047391649999E-09
   8.874150959509999E-09   9.098801160600000E-09   9.329138408610000E-09
   9.565306671810001E-09   9.807453563060000E-09   1.005573043210000E-08
   1.031029245990000E-08   1.057129875620000E-08   1.083891245830000E-08
   1.111330083350000E-08   1.139463538350000E-08   1.168309195160000E-08
   1.197885083250000E-08   1.228209688500000E-08   1.259301964800000E-08
   1.291181345810000E-08   1.323867757200000E-08   1.357381629030000E-08
   1.391743908570000E-08   1.426976073350000E-08   1.463100144630000E-08
   1.500138701140000E-08   1.538114893160000E-08   1.577052457060000E-08
   1.616975730080000E-08   1.657909665570000E-08   1.699879848580000E-08
   1.742912511820000E-08   1.787034552120000E-08   1.832273547190000E-08
   1.878657772870000E-08   1.926216220810000E-08   1.974978616600000E-08
   2.024975438310000E-08   2.076237935590000E-08   2.128798149170000E-08
   2.182688930890000E-08   2.237943964240000E-08   2.294597785420000E-08
   2.352685804920000E-08   2.412244329620000E-08   2.473310585560000E-08
   2.535922741130000E-08   2.600119930960000E-08   2.665942280390000E-08
   2.733430930530000E-08   2.802628063980000E-08   2.873576931210000E-08
   2.946321877560000E-08   3.020908370990000E-08   3.097383030500000E-08
   3.175793655230000E-08   3.256189254370000E-08   3.338620077790000E-08
   3.423137647450000E-08   3.509794789560000E-08   3.598645667680000E-08
   3.689745816480000E-08   3.783152176530000E-08   3.878923129840000E-08
   3.977118536380000E-08   4.077799771460000E-08   4.181029764150000E-08
   4.286873036550000E-08   4.395395744140000E-08   4.506665717160000E-08
   4.620752502950000E-08   4.737727409480000E-08   4.857663549860000E-08
   4.980635888090000E-08   5.106721285890000E-08   5.235998550720000E-08
   5.368548485100000E-08   5.504453937040000E-08   5.643799851880000E-08
   5.786673325350000E-08   5.933163658010000E-08   6.083362411110000E-08
   6.237363463740000E-08   6.395263071580000E-08   6.557159927020000E-08
   6.723155220870000E-08   6.893352705590000E-08   7.067858760150000E-08
   7.246782456510000E-08   7.430235627809999E-08   7.618332938259999E-08
   7.811191954780001E-08   8.008933220560000E-08   8.211680330310000E-08
   8.419560007580000E-08   8.632702183930000E-08   8.851240080170000E-08
   9.075310289590000E-08   9.305052863370000E-08   9.540611398089999E-08
   9.782133125510000E-08   1.002976900460000E-07   1.028367381580000E-07
   1.054400625780000E-07   1.081092904710000E-07   1.108460901890000E-07
   1.136521723210000E-07   1.165292907620000E-07   1.194792438020000E-07
   1.225038752590000E-07   1.256050756260000E-07   1.287847832540000E-07
   1.320449855640000E-07   1.353877202880000E-07   1.388150767440000E-07
   1.423291971430000E-07   1.459322779230000E-07   1.496265711270000E-07
   1.534143858080000E-07   1.572980894750000E-07   1.612801095690000E-07
   1.653629349800000E-07   1.695491176100000E-07   1.738412739570000E-07
   1.782420867590000E-07   1.827543066680000E-07   1.873807539680000E-07
   1.921243203380000E-07   1.969879706630000E-07   2.019747448830000E-07
   2.070877598920000E-07   2.123302114930000E-07   2.177053763880000E-07
   2.232166142300000E-07   2.288673697220000E-07   2.346611747710000E-07
   2.406016506930000E-07   2.466925104780000E-07   2.529375611130000E-07
   2.593407059580000E-07   2.659059471860000E-07   2.726373882880000E-07
   2.795392366320000E-07   2.866158060980000E-07   2.938715197740000E-07
   3.013109127160000E-07   3.089386347860000E-07   3.167594535610000E-07
   3.247782573050000E-07   3.330000580320000E-07   3.414299946360000E-07
   3.500733361010000E-07   3.589354847960000E-07   3.680219798550000E-07
   3.773385006300000E-07   3.868908702520000E-07   3.966850592620000E-07
   4.067271893480000E-07   4.170235371670000E-07   4.275805382720000E-07
   4.384047911320000E-07   4.495030612580000E-07   4.608822854300000E-07
   4.725495760330000E-07   4.845122255040000E-07   4.967777108880000E-07
   5.093536985130000E-07   5.222480487810000E-07   5.354688210790000E-07
   5.490242788220000E-07   5.629228946110000E-07   5.771733555340000E-07
   5.917845685930000E-07   6.067656662710000E-07   6.221260122429999E-07
   6.378752072250000E-07   6.540230949750000E-07   6.705797684500000E-07
   6.875555761100000E-07   7.049611283860000E-07   7.228073043159999E-07
   7.411052583410000E-07   7.598664272770000E-07   7.791025374660000E-07
   7.988256121030000E-07   8.190479787510000E-07   8.397822770490000E-07
   8.610414666060000E-07   8.828388351100000E-07   9.051880066250000E-07
   9.281029501090000E-07   9.515979881510000E-07   9.756878059110000E-07
   1.000387460310000E-06   1.025712389440000E-06   1.051678422200000E-06
   1.078301788210000E-06   1.105599127940000E-06   1.133587503120000E-06
   1.162284407390000E-06   1.191707777240000E-06   1.221876003250000E-06
   1.252807941540000E-06   1.284522925580000E-06   1.317040778250000E-06