<UPF version="2.0.1">
  <PP_INFO>
    Generated by new atomic code, or converted to UPF format
    Author: 
    Generation date: 
    Pseudopotential type: US
    Element: Ti
    Functional:  SLA  PZ   NOGX NOGC
    Suggested minimum cutoff for wavefunctions:   0. Ry
    Suggested minimum cutoff for charge density:   0. Ry
    The Pseudo was generated with a Non-Relativistic Calculation
    L component and cutoff radius for Local Potential:  0   0.0000
    Valence configuration: 
    nl pn  l   occ       Rcut    Rcut US       E pseu
    3S  1  0  2.00      0.000      0.000     0.000000
    3P  2  1  6.00      0.000      0.000     0.000000
    4S  1  0  2.00      0.000      0.000     0.000000
    3D  3  2  1.00      0.000      0.000     0.000000
    Generation configuration: not available.
  </PP_INFO>
    <!-- END OF HUMAN READABLE SECTION -->
  <PP_HEADER generated="Generated by new atomic code, or converted to UPF format" author="" date="" comment="" element="Ti" pseudo_type="US" relativistic="no" is_ultrasoft="true" is_paw="false" is_coulomb="false" has_so="false" has_wfc="false" has_gipaw="false" paw_as_gipaw="false" core_correction="true" functional=" SLA  PZ   NOGX NOGC" z_valence="12.000000000000000" total_psenergy="-117.95453119000000" wfc_cutoff="0.0000000000000000" rho_cutoff="0.0000000000000000" l_max="2" l_max_rho="0" l_local="0" mesh_size="851" number_of_wfc="4" number_of_proj="6"/>
  <PP_MESH>
    <PP_R>
   0.000000000000000E+00   1.925945867270000E-06   3.884813091270000E-06
   5.877164416630000E-06   7.903572207360000E-06   9.964618611180000E-06
   1.206089572690000E-05   1.419300577420000E-05   1.636156126730000E-05
   1.856718519000000E-05   2.081051117540000E-05   2.309218368780000E-05
   2.541285820750000E-05   2.777320141930000E-05   3.017389140420000E-05
   3.261561783390000E-05   3.509908216920000E-05   3.762499786140000E-05
   4.019409055720000E-05   4.280709830710000E-05   4.546477177780000E-05
   4.816787446730000E-05   5.091718292490000E-05   5.371348697350000E-05
   5.655758993740000E-05   5.945030887210000E-05   6.239247479989999E-05
   6.538493294800001E-05   6.842854299200000E-05   7.152417930190000E-05
   7.467273119420000E-05   7.787510318700000E-05   8.113221525970001E-05
   8.444500311760000E-05   8.781441846050000E-05   9.124142925640000E-05
   9.472702001900000E-05   9.827219209120000E-05   1.018779639320000E-04
   1.055453714110000E-04   1.092754681020000E-04   1.130693255900000E-04
   1.169280337770000E-04   1.208527011950000E-04   1.248444553260000E-04
   1.289044429220000E-04   1.330338303410000E-04   1.372338038740000E-04
   1.415055700930000E-04   1.458503561940000E-04   1.502694103490000E-04
   1.547640020690000E-04   1.593354225600000E-04   1.639849851060000E-04
   1.687140254340000E-04   1.735239021060000E-04   1.784159969080000E-04
   1.833917152420000E-04   1.884524865380000E-04   1.935997646550000E-04
   1.988350283090000E-04   2.041597814880000E-04   2.095755538920000E-04
   2.150839013670000E-04   2.206864063540000E-04   2.263846783450000E-04
   2.321803543430000E-04   2.380750993330000E-04   2.440706067630000E-04
   2.501685990250000E-04   2.563708279530000E-04   2.626790753300000E-04
   2.690951533920000E-04   2.756209053530000E-04   2.822582059370000E-04
   2.890089619120000E-04   2.958751126380000E-04   3.028586306280000E-04
   3.099615221130000E-04   3.171858276140000E-04   3.245336225350000E-04
   3.320070177560000E-04   3.396081602390000E-04   3.473392336440000E-04
   3.552024589590000E-04   3.632000951360000E-04   3.713344397430000E-04
   3.796078296180000E-04   3.880226415470000E-04   3.965812929420000E-04
   4.052862425380000E-04   4.141399910980000E-04   4.231450821340000E-04
   4.323041026330000E-04   4.416196838060000E-04   4.510945018370000E-04
   4.607312786600000E-04   4.705327827330000E-04   4.805018298390000E-04
   4.906412838930000E-04   5.009540577620000E-04   5.114431141090000E-04
   5.221114662350000E-04   5.329621789520000E-04   5.439983694590000E-04
   5.552232082400000E-04   5.666399199760000E-04   5.782517844639999E-04
   5.900621375710000E-04   6.020743721810000E-04   6.142919391780000E-04
   6.267183484310000E-04   6.393571698080000E-04   6.522120341980000E-04
   6.652866345540000E-04   6.785847269560000E-04   6.921101316880000E-04
   7.058667343390000E-04   7.198584869120000E-04   7.340894089690000E-04
   7.485635887770000E-04   7.632851844890000E-04   7.782584253340000E-04
   7.934876128350000E-04   8.089771220410000E-04   8.247314027900000E-04
   8.407549809820000E-04   8.570524598800000E-04   8.736285214350000E-04
   8.904879276280000E-04   9.076355218410001E-04   9.250762302460000E-04
   9.428150632210000E-04   9.608571167880000E-04   9.792075740820000E-04
   9.978717068320000E-04   1.016854876880000E-03   1.036162537740000E-03
   1.055800236100000E-03   1.075773613520000E-03   1.096088407940000E-03
   1.116750455430000E-03   1.137765691780000E-03   1.159140154270000E-03
   1.180879983360000E-03   1.202991424490000E-03   1.225480829850000E-03
   1.248354660200000E-03   1.271619486770000E-03   1.295281993070000E-03
   1.319348976900000E-03   1.343827352220000E-03   1.368724151210000E-03
   1.394046526230000E-03   1.419801751920000E-03   1.445997227240000E-03
   1.472640477650000E-03   1.499739157250000E-03   1.527301050950000E-03
   1.555334076760000E-03   1.583846288030000E-03   1.612845875750000E-03
   1.642341170960000E-03   1.672340647070000E-03   1.702852922350000E-03
   1.733886762400000E-03   1.765451082640000E-03   1.797554950880000E-03
   1.830207589940000E-03   1.863418380290000E-03   1.897196862760000E-03
   1.931552741240000E-03   1.966495885520000E-03   2.002036334080000E-03
   2.038184297010000E-03   2.074950158920000E-03   2.112344481920000E-03
   2.150378008690000E-03   2.189061665520000E-03   2.228406565480000E-03
   2.268424011580000E-03   2.309125500090000E-03   2.350522723730000E-03
   2.392627575140000E-03   2.435452150220000E-03   2.479008751650000E-03
   2.523309892380000E-03   2.568368299300000E-03   2.614196916790000E-03
   2.660808910540000E-03   2.708217671270000E-03   2.756436818610000E-03
   2.805480204970000E-03   2.855361919570000E-03   2.906096292470000E-03
   2.957697898670000E-03   3.010181562310000E-03   3.063562360940000E-03
   3.117855629820000E-03   3.173076966350000E-03   3.229242234570000E-03
   3.286367569660000E-03   3.344469382640000E-03   3.403564365010000E-03
   3.463669493640000E-03   3.524802035560000E-03   3.586979552960000E-03
   3.650219908250000E-03   3.714541269150000E-03   3.779962113950000E-03
   3.846501236790000E-03   3.914177753070000E-03   3.983011104940000E-03
   4.053021066910000E-03   4.124227751460000E-03   4.196651614910000E-03
   4.270313463230000E-03   4.345234458050000E-03   4.421436122710000E-03
   4.498940348470000E-03   4.577769400820000E-03   4.657945925790000E-03
   4.739492956570000E-03   4.822433920030000E-03   4.906792643500000E-03
   4.992593361630000E-03   5.079860723280000E-03   5.168619798690000E-03
   5.258896086620000E-03   5.350715521700000E-03   5.444104481880000E-03
   5.539089796000000E-03   5.635698751500000E-03   5.733959102270000E-03
   5.833899076600000E-03   5.935547385310000E-03   6.038933230000000E-03
   6.144086311410000E-03   6.251036838010000E-03   6.359815534590000E-03
   6.470453651170000E-03   6.582982971950000E-03   6.697435824430000E-03
   6.813845088680000E-03   6.932244206840000E-03   7.052667192690000E-03
   7.175148641420000E-03   7.299723739580000E-03   7.426428275180000E-03
   7.555298647990000E-03   7.686371879970000E-03   7.819685625920000E-03
   7.955278184300000E-03   8.093188508229999E-03   8.233456216680000E-03
   8.376121605850001E-03   8.521225660739999E-03   8.668810066939999E-03
   8.818917222600000E-03   8.971590250579999E-03   9.126873010909999E-03
   9.284810113310000E-03   9.445446930059999E-03   9.608829609000001E-03
   9.775005086820001E-03   9.944021102520000E-03   1.011592621110000E-02
   1.029076979760000E-02   1.046860209130000E-02   1.064947417980000E-02
   1.083343802420000E-02   1.102054647380000E-02   1.121085328120000E-02
   1.140441311790000E-02   1.160128158980000E-02   1.180151525360000E-02
   1.200517163240000E-02   1.221230923270000E-02   1.242298756120000E-02
   1.263726714180000E-02   1.285520953270000E-02   1.307687734460000E-02
   1.330233425840000E-02   1.353164504350000E-02   1.376487557650000E-02
   1.400209285980000E-02   1.424336504160000E-02   1.448876143470000E-02
   1.473835253650000E-02   1.499221005000000E-02   1.525040690330000E-02
   1.551301727150000E-02   1.578011659750000E-02   1.605178161360000E-02
   1.632809036410000E-02   1.660912222700000E-02   1.689495793750000E-02
   1.718567961040000E-02   1.748137076470000E-02   1.778211634650000E-02
   1.808800275440000E-02   1.839911786350000E-02   1.871555105110000E-02
   1.903739322260000E-02   1.936473683670000E-02   1.969767593310000E-02
   2.003630615870000E-02   2.038072479540000E-02   2.073103078810000E-02
   2.108732477270000E-02   2.144970910580000E-02   2.181828789340000E-02
   2.219316702090000E-02   2.257445418390000E-02   2.296225891880000E-02
   2.335669263450000E-02   2.375786864400000E-02   2.416590219750000E-02
   2.458091051520000E-02   2.500301282090000E-02   2.543233037640000E-02
   2.586898651630000E-02   2.631310668360000E-02   2.676481846530000E-02
   2.722425162940000E-02   2.769153816240000E-02   2.816681230650000E-02
   2.865021059870000E-02   2.914187191010000E-02   2.964193748550000E-02
   3.015055098400000E-02   3.066785852040000E-02   3.119400870720000E-02
   3.172915269720000E-02   3.227344422680000E-02   3.282703966040000E-02
   3.339009803540000E-02   3.396278110750000E-02   3.454525339750000E-02
   3.513768223840000E-02   3.574023782350000E-02   3.635309325540000E-02
   3.697642459560000E-02   3.761041091510000E-02   3.825523434600000E-02
   3.891108013350000E-02   3.957813668940000E-02   4.025659564620000E-02
   4.094665191200000E-02   4.164850372660000E-02   4.236235271840000E-02
   4.308840396250000E-02   4.382686603940000E-02   4.457795109480000E-02
   4.534187490110000E-02   4.611885691860000E-02   4.690912035940000E-02
   4.771289225080000E-02   4.853040350100000E-02   4.936188896500000E-02
   5.020758751260000E-02   5.106774209660000E-02   5.194259982280000E-02
   5.283241202080000E-02   5.373743431650000E-02   5.465792670540000E-02
   5.559415362690000E-02   5.654638404110000E-02   5.751489150520000E-02
   5.849995425280000E-02   5.950185527330000E-02   6.052088239350000E-02
   6.155732836010000E-02   6.261149092399999E-02   6.368367292580000E-02
   6.477418238250000E-02   6.588333257650000E-02   6.701144214510001E-02
   6.815883517229999E-02   6.932584128210000E-02   7.051279573260000E-02
   7.172003951290000E-02   7.294791944079999E-02   7.419678826240000E-02
   7.546700475350000E-02   7.675893382290000E-02   7.807294661670000E-02
   7.940942062530000E-02   8.076873979190000E-02   8.215129462250000E-02
   8.355748229850000E-02   8.498770679030000E-02   8.644237897380000E-02
   8.792191674800000E-02   8.942674515570000E-02   9.095729650480000E-02
   9.251401049320000E-02   9.409733433460001E-02   9.570772288740000E-02
   9.734563878510000E-02   9.901155256910001E-02   1.007059428240000E-01
   1.024292963160000E-01   1.041821081310000E-01   1.059648818170000E-01
   1.077781295320000E-01   1.096223721850000E-01   1.114981395930000E-01
   1.134059706270000E-01   1.153464133700000E-01   1.173200252730000E-01
   1.193273733180000E-01   1.213690341760000E-01   1.234455943760000E-01
   1.255576504760000E-01   1.277058092270000E-01   1.298906877530000E-01
   1.321129137290000E-01   1.343731255570000E-01   1.366719725510000E-01
   1.390101151260000E-01   1.413882249860000E-01   1.438069853140000E-01
   1.462670909750000E-01   1.487692487090000E-01   1.513141773370000E-01
   1.539026079690000E-01   1.565352842090000E-01   1.592129623760000E-01
   1.619364117140000E-01   1.647064146170000E-01   1.675237668540000E-01
   1.703892777960000E-01   1.733037706480000E-01   1.762680826880000E-01
   1.792830655060000E-01   1.823495852460000E-01   1.854685228630000E-01
   1.886407743640000E-01   1.918672510780000E-01   1.951488799090000E-01
   1.984866036040000E-01   2.018813810280000E-01   2.053341874340000E-01
   2.088460147470000E-01   2.124178718470000E-01   2.160507848590000E-01
   2.197457974480000E-01   2.235039711210000E-01   2.273263855280000E-01
   2.312141387750000E-01   2.351683477380000E-01   2.391901483840000E-01
   2.432806961000000E-01   2.474411660190000E-01   2.516727533660000E-01
   2.559766737930000E-01   2.603541637330000E-01   2.648064807540000E-01
   2.693349039210000E-01   2.739407341620000E-01   2.786252946430000E-01
   2.833899311470000E-01   2.882360124630000E-01   2.931649307760000E-01
   2.981781020680000E-01   3.032769665280000E-01   3.084629889590000E-01
   3.137376592060000E-01   3.191024925790000E-01   3.245590302920000E-01
   3.301088399020000E-01   3.357535157620000E-01   3.414946794770000E-01
   3.473339803740000E-01   3.532730959700000E-01   3.593137324590000E-01
   3.654576251980000E-01   3.717065392090000E-01   3.780622696840000E-01
   3.845266425020000E-01   3.911015147500000E-01   3.977887752640000E-01
   4.045903451640000E-01   4.115081784090000E-01   4.185442623580000E-01
   4.257006183430000E-01   4.329793022460000E-01   4.403824050920000E-01
   4.479120536490000E-01   4.555704110400000E-01   4.633596773620000E-01
   4.712820903220000E-01   4.793399258740000E-01   4.875354988790000E-01
   4.958711637670000E-01   5.043493152130000E-01   5.129723888260000E-01
   5.217428618470000E-01   5.306632538650000E-01   5.397361275350000E-01
   5.489640893180000E-01   5.583497902290000E-01   5.678959265980000E-01
   5.776052408460000E-01   5.874805222710000E-01   5.975246078490000E-01
   6.077403830530000E-01   6.181307826760000E-01   6.286987916800000E-01
   6.394474460489999E-01   6.503798336640000E-01   6.614990951870000E-01
   6.728084249680000E-01   6.843110719580000E-01   6.960103406450000E-01
   7.079095920030000E-01   7.200122444560000E-01   7.323217748620000E-01
   7.448417195110000E-01   7.575756751410000E-01   7.705272999700000E-01
   7.837003147510000E-01   7.970985038340000E-01   8.107257162620000E-01
   8.245858668670000E-01   8.386829374040000E-01   8.530209776880000E-01
   8.676041067590000E-01   8.824365140700000E-01   8.975224606840000E-01
   9.128662805010000E-01   9.284723815030000E-01   9.443452470220000E-01
   9.604894370250000E-01   9.769095894240000E-01   9.936104214130000E-01
   1.010596730820000E+00   1.027873397470000E+00   1.045445384640000E+00
   1.063317740390000E+00   1.081495599130000E+00   1.099984182990000E+00
   1.118788803400000E+00   1.137914862540000E+00   1.157367854970000E+00
   1.177153369160000E+00   1.197277089100000E+00   1.217744795950000E+00
   1.238562369680000E+00   1.259735790780000E+00   1.281271141960000E+00
   1.303174609920000E+00   1.325452487100000E+00   1.348111173490000E+00
   1.371157178500000E+00   1.394597122810000E+00   1.418437740250000E+00
   1.442685879780000E+00   1.467348507410000E+00   1.492432708230000E+00
   1.517945688470000E+00   1.543894777490000E+00   1.570287429980000E+00
   1.597131228030000E+00   1.624433883340000E+00   1.652203239440000E+00
   1.680447273920000E+00   1.709174100760000E+00   1.738391972610000E+00
   1.768109283210000E+00   1.798334569750000E+00   1.829076515390000E+00
   1.860343951680000E+00   1.892145861160000E+00   1.924491379900000E+00
   1.957389800140000E+00   1.990850572960000E+00   2.024883310990000E+00
   2.059497791180000E+00   2.094703957600000E+00   2.130511924310000E+00
   2.166931978230000E+00   2.203974582140000E+00   2.241650377670000E+00
   2.279970188350000E+00   2.318945022710000E+00   2.358586077470000E+00
   2.398904740730000E+00   2.439912595280000E+00   2.481621421860000E+00
   2.524043202630000E+00   2.567190124540000E+00   2.611074582860000E+00
   2.655709184740000E+00   2.701106752860000E+00   2.747280329040000E+00
   2.794243178070000E+00   2.842008791460000E+00   2.890590891350000E+00
   2.940003434440000E+00   2.990260615990000E+00   3.041376873920000E+00
   3.093366892940000E+00   3.146245608770000E+00   3.200028212460000E+00
   3.254730154690000E+00   3.310367150290000E+00   3.366955182670000E+00
   3.424510508500000E+00   3.483049662290000E+00   3.542589461230000E+00
   3.603147009930000E+00   3.664739705400000E+00   3.727385242050000E+00
   3.791101616720000E+00   3.855907133890000E+00   3.921820410940000E+00
   3.988860383460000E+00   4.057046310760000E+00   4.126397781320000E+00
   4.196934718480000E+00   4.268677386140000E+00   4.341646394570000E+00
   4.415862706370000E+00   4.491347642450000E+00   4.568122888160000E+00
   4.646210499540000E+00   4.725632909660000E+00   4.806412935040000E+00
   4.888573782220000E+00   4.972139054410000E+00   5.057132758300000E+00
   5.143579310950000E+00   5.231503546770000E+00   5.320930724690000E+00
   5.411886535410000E+00   5.504397108780000E+00   5.598489021290000E+00
   5.694189303720000E+00   5.791525448930000E+00   5.890525419690000E+00
   5.991217656790000E+00   6.093631087150000E+00   6.197795132180000E+00
   6.303739716190000E+00   6.411495274990000E+00   6.521092764700000E+00
   6.632563670530000E+00   6.745940015930000E+00   6.861254371720000E+00
   6.978539865490000E+00   7.097830191090000E+00   7.219159618330000E+00
   7.342563002790000E+00   7.468075795890000E+00   7.595734055020000E+00
   7.725574453920000E+00   7.857634293240000E+00   7.991951511210000E+00
   8.128564694570001E+00   8.267513089630000E+00   8.408836613589999E+00
   8.552575865960000E+00   8.698772140239999E+00   8.847467435800001E+00
   8.998704469920000E+00   9.152526690060000E+00   9.308978286380000E+00
   9.468104204399999E+00   9.629950157900000E+00   9.794562642110000E+00
   9.961988947000000E+00   1.013227717090000E+01   1.030547623430000E+01
   1.048163589410000E+01   1.066080675730000E+01   1.084304029640000E+01
   1.102838886350000E+01   1.121690570570000E+01   1.140864498020000E+01
   1.160366177010000E+01   1.180201209970000E+01   1.200375295150000E+01
   1.220894228150000E+01   1.241763903680000E+01   1.262990317190000E+01
   1.284579566610000E+01   1.306537854120000E+01   1.328871487900000E+01
   1.351586883990000E+01   1.374690568080000E+01   1.398189177400000E+01
   1.422089462650000E+01   1.446398289920000E+01   1.471122642670000E+01
   1.496269623720000E+01   1.521846457320000E+01   1.547860491190000E+01
   1.574319198660000E+01   1.601230180820000E+01   1.628601168660000E+01
   1.656440025330000E+01   1.684754748410000E+01   1.713553472160000E+01
   1.742844469900000E+01   1.772636156370000E+01   1.802937090150000E+01
   1.833755976090000E+01   1.865101667880000E+01   1.896983170530000E+01
   1.929409642970000E+01   1.962390400700000E+01   1.995934918460000E+01
   2.030052832930000E+01   2.064753945530000E+01   2.100048225230000E+01
   2.135945811380000E+01   2.172457016660000E+01   2.209592330050000E+01
   2.247362419790000E+01   2.285778136500000E+01   2.324850516270000E+01
   2.364590783850000E+01   2.405010355840000E+01   2.446120844000000E+01
   2.487934058580000E+01   2.530462011720000E+01   2.573716920850000E+01
   2.617711212300000E+01   2.662457524750000E+01   2.707968712970000E+01
   2.754257851440000E+01   2.801338238120000E+01   2.849223398310000E+01
   2.897927088480000E+01   2.947463300270000E+01   2.997846264460000E+01
   3.049090455110000E+01   3.101210593690000E+01   3.154221653290000E+01
   3.208138862970000E+01   3.262977712110000E+01   3.318753954830000E+01
   3.375483614590000E+01   3.433182988700000E+01   3.491868653090000E+01
   3.551557467010000E+01   3.612266577900000E+01   3.674013426320000E+01
   3.736815750930000E+01   3.800691593640000E+01   3.865659304730000E+01
   3.931737548170000E+01   3.998945306970000E+01   4.067301888600000E+01
   4.136826930600000E+01   4.207540406160000E+01   4.279462629900000E+01
   4.352614263680000E+01   4.427016322540000E+01   4.502690180770000E+01
   4.579657577990000E+01   4.657940625440000E+01   4.737561812350000E+01
   4.818544012320000E+01   4.900910489980000E+01   4.984684907620000E+01
   5.069891332020000E+01   5.156554241320000E+01   5.244698532120000E+01
   5.334349526540000E+01   5.425532979600000E+01   5.518275086540000E+01
   5.612602490360000E+01   5.708542289500000E+01   5.806122045610000E+01
   5.905369791480000E+01   6.006314039040000E+01   6.108983787640000E+01
   6.213408532300000E+01   6.319618272240000E+01   6.427643519460000E+01
   6.537515307510000E+01   6.649265200440000E+01   6.762925301830001E+01
   6.878528264030000E+01   6.996107297530000E+01   7.115696180510000E+01
   7.237329268550000E+01   7.361041504480001E+01   7.486868428420000E+01
   7.614846188030000E+01   7.745011548820000E+01   7.877401904800000E+01
   8.012055289150000E+01   8.149010385180000E+01   8.288306537440000E+01
   8.429983763020000E+01   8.574082763040001E+01   8.720644934360000E+01
   8.869712381460000E+01   9.021327928530000E+01   9.175535131770000E+01
   9.332378291940000E+01   9.491902467040001E+01   9.654153485280000E+01
   9.819177958240000E+01   9.987023294260000E+01   1.015773771200000E+02
   1.033137025450000E+02   1.050797080300000E+02   1.068759009140000E+02
   1.087027972090000E+02   1.105609217460000E+02   1.124508083290000E+02
   1.143729998860000E+02   1.163280486240000E+02   1.183165161920000E+02
   1.203389738380000E+02   1.223960025750000E+02   1.244881933480000E+02
   1.266161472020000E+02   1.287804754570000E+02   1.309817998830000E+02
   1.332207528780000E+02   1.354979776500000E+02   1.378141284010000E+02
   1.401698705160000E+02   1.425658807560000E+02   1.450028474460000E+02
   1.474814706810000E+02   1.500024625220000E+02   1.525665471990000E+02
   1.551744613250000E+02   1.578269541040000E+02   1.605247875450000E+02
   1.632687366830000E+02   1.660595898030000E+02   1.688981486610000E+02
   1.717852287220000E+02   1.747216593870000E+02   1.777082842360000E+02
   1.807459612690000E+02   1.838355631520000E+02   1.869779774660000E+02
   1.901741069680000E+02   1.934248698430000E+02   1.967311999730000E+02
   2.000940472010000E+02   2.035143776100000E+02
    </PP_R>
    <PP_RAB>
   1.909670398050000E-06   1.942313548340000E-06   1.975514687730000E-06
   2.009283354260000E-06   2.043629249020000E-06   2.078562238920000E-06
   2.114092359520000E-06   2.150229817950000E-06   2.186984995800000E-06
   2.224368452120000E-06   2.262390926450000E-06   2.301063341910000E-06
   2.340396808340000E-06   2.380402625490000E-06   2.421092286250000E-06
   2.462477479980000E-06   2.504570095830000E-06   2.547382226210000E-06
   2.590926170200000E-06   2.635214437150000E-06   2.680259750210000E-06
   2.726075050040000E-06   2.772673498470000E-06   2.820068482350000E-06
   2.868273617330000E-06   2.917302751810000E-06   2.967169970930000E-06
   3.017889600560000E-06   3.069476211470000E-06   3.121944623500000E-06
   3.175309909810000E-06   3.229587401220000E-06   3.284792690580000E-06
   3.340941637330000E-06   3.398050371960000E-06   3.456135300700000E-06
   3.515213110240000E-06   3.575300772480000E-06   3.636415549440000E-06
   3.698574998230000E-06   3.761796976040000E-06   3.826099645330000E-06
   3.891501479010000E-06   3.958021265770000E-06   4.025678115440000E-06
   4.094491464530000E-06   4.164481081790000E-06   4.235667073870000E-06
   4.308069891150000E-06   4.381710333530000E-06   4.456609556510000E-06
   4.532789077180000E-06   4.610270780430000E-06   4.689076925260000E-06
   4.769230151160000E-06   4.850753484590000E-06   4.933670345640000E-06
   5.018004554700000E-06   5.103780339360000E-06   5.191022341360000E-06
   5.279755623620000E-06   5.370005677510000E-06   5.461798430120000E-06
   5.555160251720000E-06   5.650117963370000E-06   5.746698844570000E-06
   5.844930641140000E-06   5.944841573190000E-06   6.046460343180000E-06
   6.149816144230000E-06   6.254938668450000E-06   6.361858115510000E-06
   6.470605201300000E-06   6.581211166750000E-06   6.693707786810000E-06
   6.808127379600000E-06   6.924502815640000E-06   7.042867527340000E-06
   7.163255518600000E-06   7.285701374560000E-06   7.410240271530000E-06
   7.536907987140000E-06   7.665740910569999E-06   7.796776053019999E-06
   7.930051058360001E-06   8.065604213919999E-06   8.203474461490000E-06
   8.343701408530000E-06   8.486325339530000E-06   8.631387227570000E-06
   8.778928746150000E-06   8.928992281069999E-06   9.081620942690000E-06
   9.236858578279999E-06   9.394749784589999E-06   9.555339920710001E-06
   9.718675121100000E-06   9.884802308780001E-06   1.005376920890000E-05
   1.022562436230000E-05   1.040041713980000E-05   1.057819775580000E-05
   1.075901728340000E-05   1.094292766840000E-05   1.112998174480000E-05
   1.132023324960000E-05   1.151373683830000E-05   1.171054810080000E-05
   1.191072357720000E-05   1.211432077400000E-05   1.232139818070000E-05
   1.253201528670000E-05   1.274623259820000E-05   1.296411165560000E-05
   1.318571505150000E-05   1.341110644810000E-05   1.364035059620000E-05
   1.387351335290000E-05   1.411066170160000E-05   1.435186377040000E-05
   1.459718885190000E-05   1.484670742330000E-05   1.510049116640000E-05
   1.535861298850000E-05   1.562114704280000E-05   1.588816875040000E-05
   1.615975482150000E-05   1.643598327740000E-05   1.671693347320000E-05
   1.700268612060000E-05   1.729332331060000E-05   1.758892853780000E-05
   1.788958672380000E-05   1.819538424190000E-05   1.850640894180000E-05
   1.882275017490000E-05   1.914449881980000E-05   1.947174730880000E-05
   1.980458965400000E-05   2.014312147460000E-05   2.048744002420000E-05
   2.083764421890000E-05   2.119383466550000E-05   2.155611369070000E-05
   2.192458537020000E-05   2.229935555890000E-05   2.268053192090000E-05
   2.306822396080000E-05   2.346254305510000E-05   2.386360248400000E-05
   2.427151746410000E-05   2.468640518150000E-05   2.510838482540000E-05
   2.553757762240000E-05   2.597410687120000E-05   2.641809797840000E-05
   2.686967849390000E-05   2.732897814800000E-05   2.779612888880000E-05
   2.827126491950000E-05   2.875452273750000E-05   2.924604117350000E-05
   2.974596143120000E-05   3.025442712800000E-05   3.077158433630000E-05
   3.129758162520000E-05   3.183257010380000E-05   3.237670346380000E-05
   3.293013802410000E-05   3.349303277590000E-05   3.406554942780000E-05
   3.464785245300000E-05   3.524010913560000E-05   3.584248961970000E-05
   3.645516695750000E-05   3.707831715930000E-05   3.771211924420000E-05
   3.835675529110000E-05   3.901241049160000E-05   3.967927320270000E-05
   4.035753500120000E-05   4.104739073850000E-05   4.174903859690000E-05
   4.246268014620000E-05   4.318852040180000E-05   4.392676788360000E-05
   4.467763467570000E-05   4.544133648780000E-05   4.621809271650000E-05
   4.700812650890000E-05   4.781166482640000E-05   4.862893851000000E-05
   4.946018234660000E-05   5.030563513650000E-05   5.116553976200000E-05
   5.204014325690000E-05   5.292969687790000E-05   5.383445617670000E-05
   5.475468107290000E-05   5.569063592950000E-05   5.664258962810000E-05
   5.761081564660000E-05   5.859559213760000E-05   5.959720200840000E-05
   6.061593300210000E-05   6.165207778029999E-05   6.270593400749999E-05
   6.377780443610000E-05   6.486799699380000E-05   6.597682487179999E-05
   6.710460661480000E-05   6.825166621280000E-05   6.941833319370000E-05
   7.060494271850000E-05   7.181183567710000E-05   7.303935878639999E-05
   7.428786469010000E-05   7.555771205979999E-05   7.684926569810001E-05
   7.816289664340001E-05   7.949898227630000E-05   8.085790642840001E-05
   8.224005949250000E-05   8.364583853410000E-05   8.507564740660000E-05
   8.652989686630000E-05   8.800900469090000E-05   8.951339579960000E-05
   9.104350237460000E-05   9.259976398620000E-05   9.418262771800000E-05
   9.579254829630000E-05   9.742998822009999E-05   9.909541789410001E-05
   1.007893157640000E-04   1.025121684540000E-04   1.042644709060000E-04
   1.060467265240000E-04   1.078594473130000E-04   1.097031540350000E-04
   1.115783763500000E-04   1.134856529740000E-04   1.154255318290000E-04
   1.173985702060000E-04   1.194053349210000E-04   1.214464024780000E-04
   1.235223592360000E-04   1.256338015770000E-04   1.277813360790000E-04
   1.299655796860000E-04   1.321871598890000E-04   1.344467149050000E-04
   1.367448938610000E-04   1.390823569780000E-04   1.414597757660000E-04
   1.438778332090000E-04   1.463372239700000E-04   1.488386545840000E-04
   1.513828436620000E-04   1.539705221030000E-04   1.566024332950000E-04
   1.592793333360000E-04   1.620019912470000E-04   1.647711891950000E-04
   1.675877227170000E-04   1.704524009490000E-04   1.733660468580000E-04
   1.763294974770000E-04   1.793436041480000E-04   1.824092327670000E-04
   1.855272640280000E-04   1.886985936820000E-04   1.919241327910000E-04
   1.952048079890000E-04   1.985415617510000E-04   2.019353526620000E-04
   2.053871556920000E-04   2.088979624780000E-04   2.124687816050000E-04
   2.161006389030000E-04   2.197945777320000E-04   2.235516592900000E-04
   2.273729629140000E-04   2.312595863900000E-04   2.352126462700000E-04
   2.392332781920000E-04   2.433226372060000E-04   2.474818981040000E-04
   2.517122557630000E-04   2.560149254820000E-04   2.603911433360000E-04
   2.648421665260000E-04   2.693692737450000E-04   2.739737655440000E-04
   2.786569647050000E-04   2.834202166190000E-04   2.882648896770000E-04
   2.931923756600000E-04   2.982040901380000E-04   3.033014728820000E-04
   3.084859882690000E-04   3.137591257110000E-04   3.191224000790000E-04
   3.245773521360000E-04   3.301255489870000E-04   3.357685845190000E-04
   3.415080798680000E-04   3.473456838800000E-04   3.532830735860000E-04
   3.593219546820000E-04   3.654640620230000E-04   3.717111601160000E-04
   3.780650436330000E-04   3.845275379210000E-04   3.911004995300000E-04
   3.977858167450000E-04   4.045854101270000E-04   4.115012330680000E-04
   4.185352723500000E-04   4.256895487180000E-04   4.329661174550000E-04