<UPF version="2.0.1">
  <PP_INFO>
    Generated by new atomic code, or converted to UPF format
    Author: 
    Generation date: 
    Pseudopotential type: US
    Element: Tl
    Functional: SLA  PZ   NOGX NOGC
    Suggested minimum cutoff for wavefunctions:   0. Ry
    Suggested minimum cutoff for charge density:   0. Ry
    The Pseudo was generated with a Non-Relativistic Calculation
    L component and cutoff radius for Local Potential:  0   0.0000
    Valence configuration: 
    nl pn  l   occ       Rcut    Rcut US       E pseu
    5D  3  2 10.00      0.000      0.000     0.000000
    6S  1  0  2.00      0.000      0.000     0.000000
    6P  2  1  1.00      0.000      0.000     0.000000
    Generation configuration: not available.
  </PP_INFO>
    <!-- END OF HUMAN READABLE SECTION -->
  <PP_HEADER generated="Generated by new atomic code, or converted to UPF format" author="" date="" comment="" element="Tl" pseudo_type="US" relativistic="no" is_ultrasoft="true" is_paw="false" is_coulomb="false" has_so="false" has_wfc="false" has_gipaw="false" paw_as_gipaw="false" core_correction="true" functional="SLA  PZ   NOGX NOGC" z_valence="13.000000000000000" total_psenergy="-144.65409172599999" wfc_cutoff="0.0000000000000000" rho_cutoff="0.0000000000000000" l_max="2" l_max_rho="0" l_local="0" mesh_size="899" number_of_wfc="3" number_of_proj="6"/>
  <PP_MESH>
    <PP_R>
   0.000000000000000E+00   7.064260662050000E-10   1.430735393420000E-09
   2.173380698550000E-09   2.934826159080000E-09   3.715547703220000E-09
   4.516033307350000E-09   5.336783301020000E-09   6.178310679710000E-09
   7.041141425410000E-09   7.925814835419999E-09   8.832883859439999E-09
   9.762915445130000E-09   1.071649089250000E-08   1.169420621720000E-08
   1.269667252330000E-08   1.372451638470000E-08   1.477838023730000E-08
   1.585892278040000E-08   1.696681938810000E-08   1.810276253210000E-08
   1.926746221360000E-08   2.046164640790000E-08   2.168606151910000E-08
   2.294147284640000E-08   2.422866506270000E-08   2.554844270510000E-08
   2.690163067760000E-08   2.828907476670000E-08   2.971164217010000E-08
   3.117022203890000E-08   3.266572603280000E-08   3.419908889050000E-08
   3.577126901380000E-08   3.738324906640000E-08   3.903603658830000E-08
   4.073066462550000E-08   4.246819237580000E-08   4.424970585040000E-08
   4.607631855340000E-08   4.794917217710000E-08   4.986943731600000E-08
   5.183831419840000E-08   5.385703343630000E-08   5.592685679500000E-08
   5.804907798160000E-08   6.022502345320000E-08   6.245605324669999E-08
   6.474356182830000E-08   6.708897896540000E-08   6.949377062000001E-08
   7.195943986509999E-08   7.448752782440001E-08   7.707961463500000E-08
   7.973732043570000E-08   8.246230637899999E-08   8.525627567000000E-08
   8.812097463020000E-08   9.105819378990000E-08   9.406976900660001E-08
   9.715758261300000E-08   1.003235645930000E-07   1.035696937880000E-07
   1.068979991350000E-07   1.103105609330000E-07   1.138095121450000E-07
   1.173970397280000E-07   1.210753860040000E-07   1.248468500590000E-07
   1.287137891820000E-07   1.326786203340000E-07   1.367438216650000E-07
   1.409119340580000E-07   1.451855627180000E-07   1.495673788030000E-07
   1.540601210900000E-07   1.586665976900000E-07   1.633896878000000E-07
   1.682323435050000E-07   1.731975916230000E-07   1.782885355960000E-07
   1.835083574290000E-07   1.888603196810000E-07   1.943477675020000E-07
   1.999741307260000E-07   2.057429260130000E-07   2.116577590480000E-07
   2.177223267950000E-07   2.239404198050000E-07   2.303159245890000E-07
   2.368528260450000E-07   2.435552099490000E-07   2.504272655090000E-07
   2.574732879840000E-07   2.646976813680000E-07   2.721049611400000E-07
   2.796997570930000E-07   2.874868162210000E-07   2.954710056890000E-07
   3.036573158750000E-07   3.120508634910000E-07   3.206568947760000E-07
   3.294807887810000E-07   3.385280607250000E-07   3.478043654500000E-07
   3.573155009460000E-07   3.670674119840000E-07   3.770661938250000E-07
   3.873180960340000E-07   3.978295263820000E-07   4.086070548570000E-07
   4.196574177640000E-07   4.309875219400000E-07   4.426044490690000E-07
   4.545154601080000E-07   4.667279998270000E-07   4.792497014610000E-07
   4.920883914810000E-07   5.052520944860000E-07   5.187490382190000E-07
   5.325876587100000E-07   5.467766055460000E-07   5.613247472820000E-07
   5.762411769790000E-07   5.915352178910000E-07   6.072164292930000E-07
   6.232946124510000E-07   6.397798167540000E-07   6.566823459900000E-07
   6.740127647910000E-07   6.917819052330000E-07   7.100008736070000E-07
   7.286810573610000E-07   7.478341322180000E-07   7.674720694740000E-07
   7.876071434780000E-07   8.082519393070000E-07   8.294193606310000E-07
   8.511226377770000E-07   8.733753359990000E-07   8.961913639600000E-07
   9.195849824170000E-07   9.435708131460000E-07   9.681638480699999E-07
   9.933794586379999E-07   1.019233405430000E-06   1.045741847990000E-06
   1.072921354980000E-06   1.100788914460000E-06   1.129361944570000E-06
   1.158658304380000E-06   1.188696305060000E-06   1.219494721360000E-06
   1.251072803280000E-06   1.283450288140000E-06   1.316647412940000E-06
   1.350684926950000E-06   1.385584104730000E-06   1.421366759410000E-06
   1.458055256300000E-06   1.495672526910000E-06   1.534242083260000E-06
   1.573788032580000E-06   1.614335092370000E-06   1.655908605860000E-06
   1.698534557870000E-06   1.742239590980000E-06   1.787051022270000E-06
   1.832996860350000E-06   1.880105822860000E-06   1.928407354430000E-06
   1.977931645090000E-06   2.028709649140000E-06   2.080773104490000E-06
   2.134154552480000E-06   2.188887358260000E-06   2.245005731610000E-06
   2.302544748350000E-06   2.361540372240000E-06   2.422029477450000E-06
   2.484049871650000E-06   2.547640319610000E-06   2.612840567420000E-06
   2.679691367360000E-06   2.748234503360000E-06   2.818512817100000E-06
   2.890570234840000E-06   2.964451794780000E-06   3.040203675320000E-06
   3.117873223850000E-06   3.197508986350000E-06   3.279160737790000E-06
   3.362879513150000E-06   3.448717639400000E-06   3.536728768160000E-06
   3.626967909260000E-06   3.719491465090000E-06   3.814357265880000E-06
   3.911624605850000E-06   4.011354280260000E-06   4.113608623400000E-06
   4.218451547560000E-06   4.325948582980000E-06   4.436166918810000E-06
   4.549175445090000E-06   4.665044795830000E-06   4.783847393160000E-06
   4.905657492550000E-06   5.030551229290000E-06   5.158606666030000E-06
   5.289903841590000E-06   5.424524820970000E-06   5.562553746660000E-06
   5.704076891250000E-06   5.849182711300000E-06   5.997961902670000E-06
   6.150507457210000E-06   6.306914720840000E-06   6.467281453200000E-06
   6.631707888720000E-06   6.800296799270000E-06   6.973153558410000E-06
   7.150386207240000E-06   7.332105521940000E-06   7.518425082990000E-06
   7.709461346190000E-06   7.905333715409999E-06   8.106164617270001E-06
   8.312079577620001E-06   8.523207300000001E-06   8.739679746120000E-06
   8.961632218299999E-06   9.189203444070001E-06   9.422535662849999E-06
   9.661774714860000E-06   9.907070132320001E-06   1.015857523280000E-05
   1.041644721530000E-05   1.068084725800000E-05   1.095194061970000E-05
   1.122989674260000E-05   1.151488935810000E-05   1.180709659610000E-05
   1.210670109560000E-05   1.241389011900000E-05   1.272885566960000E-05
   1.305179461110000E-05   1.338290879080000E-05   1.372240516590000E-05
   1.407049593260000E-05   1.442739865910000E-05   1.479333642100000E-05
   1.516853794160000E-05   1.555323773380000E-05   1.594767624760000E-05
   1.635210002000000E-05   1.676676182890000E-05   1.719192085150000E-05
   1.762784282590000E-05   1.807480021770000E-05   1.853307238980000E-05
   1.900294577710000E-05   1.948471406580000E-05   1.997867837680000E-05
   2.048514745390000E-05   2.100443785670000E-05   2.153687415870000E-05
   2.208278914980000E-05   2.264252404470000E-05   2.321642869600000E-05
   2.380486181260000E-05   2.440819118450000E-05   2.502679391220000E-05
   2.566105664250000E-05   2.631137581030000E-05   2.697815788610000E-05
   2.766181963060000E-05   2.836278835450000E-05   2.908150218620000E-05
   2.981841034520000E-05   3.057397342300000E-05   3.134866367110000E-05
   3.214296529630000E-05   3.295737476290000E-05   3.379240110320000E-05
   3.464856623600000E-05   3.552640529240000E-05   3.642646695020000E-05
   3.734931377740000E-05   3.829552258320000E-05   3.926568477900000E-05
   4.026040674780000E-05   4.128031022300000E-05   4.232603267770000E-05
   4.339822772230000E-05   4.449756551370000E-05   4.562473317380000E-05
   4.678043521900000E-05   4.796539400090000E-05   4.918035015710000E-05
   5.042606307480000E-05   5.170331136520000E-05   5.301289334990000E-05
   5.435562756050000E-05   5.573235324950000E-05   5.714393091510000E-05
   5.859124283960000E-05   6.007519363980000E-05   6.159671083340001E-05
   6.315674541810000E-05   6.475627246640000E-05   6.639629173460000E-05
   6.807782828830000E-05   6.980193314250000E-05   7.156968391900000E-05
   7.338218551930001E-05   7.524057081620000E-05   7.714600136080001E-05
   7.909966810930000E-05   8.110279216690000E-05   8.315662555160000E-05
   8.526245197590000E-05   8.742158764990000E-05   8.963538210379999E-05
   9.190521903110000E-05   9.423251715370001E-05   9.661873110890000E-05
   9.906535235790001E-05   1.015739101190000E-04   1.041459723220000E-04
   1.067831465890000E-04   1.094870812410000E-04   1.122594663250000E-04
   1.151020346710000E-04   1.180165629770000E-04   1.210048729190000E-04
   1.240688322870000E-04   1.272103561550000E-04   1.304314080800000E-04
   1.337340013210000E-04   1.371202001090000E-04   1.405921209270000E-04
   1.441519338390000E-04   1.478018638440000E-04   1.515441922670000E-04
   1.553812581860000E-04   1.593154598900000E-04   1.633492563840000E-04
   1.674851689230000E-04   1.717257825870000E-04   1.760737478960000E-04
   1.805317824710000E-04   1.851026727290000E-04   1.897892756250000E-04
   1.945945204380000E-04   1.995214106020000E-04   2.045730255850000E-04
   2.097525228090000E-04   2.150631396310000E-04   2.205081953570000E-04
   2.260910933250000E-04   2.318153230280000E-04   2.376844622960000E-04
   2.437021795320000E-04   2.498722360050000E-04   2.561984882010000E-04
   2.626848902340000E-04   2.693354963160000E-04   2.761544632930000E-04
   2.831460532410000E-04   2.903146361310000E-04   2.976646925610000E-04
   3.052008165550000E-04   3.129277184360000E-04   3.208502277700000E-04
   3.289732963820000E-04   3.373020014550000E-04   3.458415487010000E-04
   3.545972756150000E-04   3.635746548110000E-04   3.727792974430000E-04
   3.822169567130000E-04   3.918935314650000E-04   4.018150698730000E-04
   4.119877732210000E-04   4.224179997810000E-04   4.331122687830000E-04
   4.440772644940000E-04   4.553198403930000E-04   4.668470234560000E-04
   4.786660185470000E-04   4.907842129240000E-04   5.032091808510000E-04
   5.159486883400000E-04   5.290106979950000E-04   5.424033740000000E-04
   5.561350872120000E-04   5.702144203980000E-04   5.846501736020000E-04
   5.994513696370000E-04   6.146272597340000E-04   6.301873293180000E-04
   6.461413039390000E-04   6.624991553500000E-04   6.792711077410000E-04
   6.964676441279999E-04   7.140995129070000E-04   7.321777345680000E-04
   7.507136085900000E-04   7.697187204970000E-04   7.892049491020000E-04
   8.091844739340000E-04   8.296697828440000E-04   8.506736798180000E-04
   8.722092929760000E-04   8.942900827760000E-04   9.169298504310000E-04
   9.401427465330000E-04   9.639432798980001E-04   9.883463266340000E-04
   1.013367139440000E-03   1.039021357130000E-03   1.065325014440000E-03
   1.092294552010000E-03   1.119946826670000E-03   1.148299121990000E-03
   1.177369159090000E-03   1.207175107680000E-03   1.237735597450000E-03
   1.269069729700000E-03   1.301197089290000E-03   1.334137756860000E-03
   1.367912321390000E-03   1.402541893100000E-03   1.438048116590000E-03
   1.474453184410000E-03   1.511779850910000E-03   1.550051446470000E-03
   1.589291892080000E-03   1.629525714300000E-03   1.670778060580000E-03
   1.713074714980000E-03   1.756442114290000E-03   1.800907364530000E-03
   1.846498257940000E-03   1.893243290320000E-03   1.941171678820000E-03
   1.990313380250000E-03   2.040699109780000E-03   2.092360360120000E-03
   2.145329421250000E-03   2.199639400540000E-03   2.255324243500000E-03
   2.312418754970000E-03   2.370958620880000E-03   2.430980430550000E-03
   2.492521699570000E-03   2.555620893230000E-03   2.620317450580000E-03
   2.686651809080000E-03   2.754665429860000E-03   2.824400823650000E-03
   2.895901577340000E-03   2.969212381220000E-03   3.044379056940000E-03
   3.121448586120000E-03   3.200469139710000E-03   3.281490108140000E-03
   3.364562132160000E-03   3.449737134470000E-03   3.537068352230000E-03
   3.626610370300000E-03   3.718419155340000E-03   3.812552090850000E-03
   3.909068012960000E-03   4.008027247270000E-03   4.109491646530000E-03
   4.213524629280000E-03   4.320191219530000E-03   4.429558087360000E-03
   4.541693590640000E-03   4.656667817700000E-03   4.774552631170000E-03
   4.895421712910000E-03   5.019350610010000E-03   5.146416782090000E-03
   5.276699649620000E-03   5.410280643650000E-03   5.547243256640000E-03
   5.687673094690000E-03   5.831657931010000E-03   5.979287760810000E-03
   6.130654857560000E-03   6.285853830590000E-03   6.444981684340000E-03
   6.608137878880000E-03   6.775424392160000E-03   6.946945783670000E-03
   7.122809259890000E-03   7.303124741200000E-03   7.488004930660000E-03
   7.677565384390000E-03   7.871924583859999E-03   8.071204009880000E-03
   8.275528218600000E-03   8.485024919280000E-03   8.699825054189999E-03
   8.920062880400001E-03   9.145876053730000E-03   9.377405714760000E-03
   9.614796577060001E-03   9.858197017650000E-03   1.010775916970000E-02
   1.036363901780000E-02   1.062599649500000E-02   1.089499558340000E-02
   1.117080441610000E-02   1.145359538270000E-02   1.174354523670000E-02
   1.204083520620000E-02   1.234565110700000E-02   1.265818345920000E-02
   1.297862760550000E-02   1.330718383400000E-02   1.364405750300000E-02
   1.398945916960000E-02   1.434360472100000E-02   1.470671550970000E-02
   1.507901849170000E-02   1.546074636870000E-02   1.585213773280000E-02
   1.625343721650000E-02   1.666489564500000E-02   1.708677019320000E-02
   1.751932454650000E-02   1.796282906530000E-02   1.841756095450000E-02
   1.888380443620000E-02   1.936185092790000E-02   1.985199922420000E-02
   2.035455568360000E-02   2.086983442040000E-02   2.139815750050000E-02
   2.193985514300000E-02   2.249526592670000E-02   2.306473700130000E-02
   2.364862430470000E-02   2.424729278570000E-02   2.486111663140000E-02
   2.549047950170000E-02   2.613577476890000E-02   2.679740576360000E-02
   2.747578602670000E-02   2.817133956790000E-02   2.888450113080000E-02
   2.961571646470000E-02   3.036544260280000E-02   3.113414814850000E-02
   3.192231356770000E-02   3.273043148950000E-02   3.355900701390000E-02
   3.440855802760000E-02   3.527961552760000E-02   3.617272395310000E-02
   3.708844152610000E-02   3.802734059990000E-02   3.899000801680000E-02
   3.997704547540000E-02   4.098906990630000E-02   4.202671385750000E-02
   4.309062589050000E-02   4.418147098480000E-02   4.529993095420000E-02
   4.644670487250000E-02   4.762250951070000E-02   4.882807978510000E-02
   5.006416921620000E-02   5.133155040030000E-02   5.263101549180000E-02
   5.396337669880000E-02   5.532946679020000E-02   5.673013961700000E-02
   5.816627064520000E-02   5.963875750350000E-02   6.114852054400000E-02
   6.269650341790001E-02   6.428367366480001E-02   6.591102331779999E-02
   6.757956952340000E-02   6.929035517730001E-02   7.104444957630000E-02
   7.284294908630000E-02   7.468697782820000E-02   7.657768837990001E-02
   7.851626249720001E-02   8.050391185190001E-02   8.254187878950001E-02
   8.463143710580000E-02   8.677389284270000E-02   8.897058510480001E-02
   9.122288689630000E-02   9.353220597910000E-02   9.589998575280000E-02
   9.832770615689999E-02   1.008168845960000E-01   1.033690768860000E-01
   1.059858782330000E-01   1.086689242200000E-01   1.114198918410000E-01
   1.142405005380000E-01   1.171325132840000E-01   1.200977376820000E-01
   1.231380270920000E-01   1.262552817960000E-01   1.294514501780000E-01
   1.327285299470000E-01   1.360885693870000E-01   1.395336686290000E-01
   1.430659809740000E-01   1.466877142320000E-01   1.504011321030000E-01
   1.542085555960000E-01   1.581123644730000E-01   1.621149987430000E-01
   1.662189601810000E-01   1.704268138980000E-01   1.747411899390000E-01
   1.791647849290000E-01   1.837003637600000E-01   1.883507613150000E-01
   1.931188842450000E-01   1.980077127820000E-01   2.030203026020000E-01
   2.081597867380000E-01   2.134293775340000E-01   2.188323686560000E-01
   2.243721371500000E-01   2.300521455500000E-01   2.358759440480000E-01
   2.418471727070000E-01   2.479695637390000E-01   2.542469438380000E-01
   2.606832365710000E-01   2.672824648290000E-01   2.740487533470000E-01
   2.809863312740000E-01   2.880995348220000E-01   2.953928099760000E-01
   3.028707152690000E-01   3.105379246360000E-01   3.183992303320000E-01
   3.264595459290000E-01   3.347239093870000E-01   3.431974862020000E-01
   3.518855726350000E-01   3.607935990240000E-01   3.699271331740000E-01
   3.792918838420000E-01   3.888937043010000E-01   3.987385960030000E-01
   4.088327123250000E-01   4.191823624190000E-01   4.297940151520000E-01
   4.406743031520000E-01   4.518300269550000E-01   4.632681592500000E-01
   4.749958492430000E-01   4.870204271220000E-01   4.993494086390000E-01
   5.119904998090000E-01   5.249516017250000E-01   5.382408154990000E-01
   5.518664473210000E-01   5.658370136540000E-01   5.801612465590000E-01
   5.948480991450000E-01   6.099067511750000E-01   6.253466147960000E-01
   6.411773404260001E-01   6.574088227829999E-01   6.740512070719999E-01
   6.911148953250000E-01   7.086105529030000E-01   7.265491151610000E-01
   7.449417942840000E-01   7.638000862970000E-01   7.831357782440000E-01
   8.029609555640000E-01   8.232880096370000E-01   8.441296455340001E-01
   8.654988899550000E-01   8.874090993740000E-01   9.098739683860000E-01
   9.329075382640000E-01   9.565242057400000E-01   9.807387319990000E-01
   1.005566251910000E+00   1.031022283480000E+00   1.057122737550000E+00
   1.083883927770000E+00   1.111322580740000E+00   1.139455846520000E+00
   1.168301309320000E+00   1.197876998480000E+00   1.228201399770000E+00
   1.259293466940000E+00   1.291172633540000E+00   1.323858825080000E+00
   1.357372471500000E+00   1.391734519920000E+00   1.426966447740000E+00
   1.463090276050000E+00   1.500128583440000E+00   1.538104520040000E+00
   1.577041822050000E+00   1.616964826550000E+00   1.657898486720000E+00
   1.699868387440000E+00   1.742900761250000E+00   1.787022504790000E+00
   1.832261195580000E+00   1.878645109290000E+00   1.926203237360000E+00
   1.974965305170000E+00   2.024961790610000E+00   2.076223943110000E+00
   2.128783803170000E+00   2.182674222420000E+00   2.237928884130000E+00
   2.294582324270000E+00   2.352669953070000E+00   2.412228077190000E+00
   2.473293922400000E+00   2.535905656850000E+00   2.600102414890000E+00
   2.665924321610000E+00   2.733412517830000E+00   2.802609185860000E+00
   2.873557575890000E+00   2.946302032970000E+00   3.020888024740000E+00
   3.097362169880000E+00   3.175772267230000E+00   3.256167325640000E+00
   3.338597594640000E+00   3.423114595840000E+00   3.509771155110000E+00
   3.598621435620000E+00   3.689720971690000E+00   3.783126703490000E+00
   3.878897012660000E+00   3.977091758740000E+00   4.077772316660000E+00
   4.181001615030000E+00   4.286844175540000E+00   4.395366153220000E+00
   4.506635377840000E+00   4.620721396300000E+00   4.737695516060000E+00
   4.857630849760000E+00   4.980602360890000E+00   5.106686910650000E+00
   5.235963305980000E+00   5.368512348840000E+00   5.504416886690000E+00
   5.643761864300000E+00   5.786634376820000E+00   5.933123724200000E+00
   6.083321467070000E+00   6.237321483910000E+00   6.395220029730000E+00
   6.557115796270000E+00   6.723109973650000E+00   6.893306313640000E+00
   7.067811194490000E+00   7.246733687420000E+00   7.430185624840000E+00
   7.618281670150000E+00   7.811139389530000E+00   8.008879325320001E+00
   8.211625071409999E+00   8.419503350499999E+00   8.632644093280000E+00
   8.851180519650001E+00   9.075249222000000E+00   9.304990250550000E+00
   9.540547200920001E+00   9.782067303890001E+00   1.002970151740000E+01
   1.028360462080000E+01   1.054393531190000E+01   1.081085630590000E+01
   1.108453443690000E+01   1.136514076280000E+01   1.165285067170000E+01
   1.194784399170000E+01   1.225030510300000E+01   1.256042305390000E+01
   1.287839167800000E+01   1.320440971620000E+01   1.353868094030000E+01
   1.388141428080000E+01   1.423282395710000E+01   1.459312961170000E+01
   1.496255644730000E+01   1.534133536780000E+01   1.572970312240000E+01
   1.612790245340000E+01   1.653618224860000E+01   1.695479769590000E+01
   1.738401044380000E+01   1.782408876400000E+01   1.827530772010000E+01
   1.873794933830000E+01   1.921230278490000E+01   1.969866454620000E+01
   2.019733861400000E+01   2.070863667600000E+01   2.123287831010000E+01
   2.177039118430000E+01   2.232151126170000E+01   2.288658301030000E+01
   2.346595961830000E+01   2.406000321490000E+01   2.466908509680000E+01
   2.529358596000000E+01   2.593389613780000E+01   2.659041584490000E+01
   2.726355542750000E+01   2.795373561980000E+01   2.866138780680000E+01
   2.938695429420000E+01   3.013088858470000E+01   3.089365566150000E+01
   3.167573227870000E+01   3.247760725970000E+01   3.329978180260000E+01
   3.414276979300000E+01   3.500709812610000E+01   3.589330703510000E+01
   3.680195042940000E+01   3.773359624080000E+01   3.868882677810000E+01
   3.966823909170000E+01   4.067244534600000E+01   4.170207320260000E+01
   4.275776621260000E+01   4.384018421830000E+01   4.495000376630000E+01
   4.608791852990000E+01   4.725463974300000E+01   4.845089664410000E+01
   4.967743693290000E+01   5.093502723690000E+01   5.222445359100000E+01
   5.354652192870000E+01   5.490205858570000E+01   5.629191081650000E+01
   5.771694732410000E+01   5.917805880260000E+01   6.067615849430000E+01
   6.221218276030000E+01   6.378709166560000E+01   6.540186957980001E+01
   6.705752579140000E+01   6.875509513960000E+01   7.049563866040000E+01
   7.228024425030000E+01   7.411002734570000E+01   7.598613162069999E+01
   7.790972970160000E+01   7.988202389970000E+01   8.190424696319999E+01
   8.397766284719999E+01   8.610356750430000E+01   8.828328969390000E+01
   9.051819181350000E+01   9.280967074960000E+01   9.515915875120000E+01
   9.756812432469999E+01   1.000380731520000E+02   1.025705490320000E+02
   1.051671348430000E+02   1.078294535380000E+02   1.105591691510000E+02
   1.133579878440000E+02   1.162276589690000E+02   1.191699761650000E+02
   1.221867784750000E+02   1.252799514990000E+02   1.284514285720000E+02
   1.317031919680000E+02   1.350372741470000E+02   1.384557590180000E+02
   1.419607832460000E+02   1.455545375840000E+02   1.492392682460000E+02
   1.530172783100000E+02   1.568909291530000E+02
    </PP_R>
    <PP_RAB>
   6.976325330190000E-10   7.152931846740000E-10   7.334009178540000E-10
   7.519670504830000E-10   7.710031869960000E-10   7.905212255990000E-10
   8.105333657030000E-10   8.310521155440000E-10   8.520903000110000E-10
   8.736610686540000E-10   8.957779039040000E-10   9.184546295050000E-10
   9.417054191470001E-10   9.655448053310000E-10   9.899876884500001E-10
   1.015049346100000E-09   1.040745442640000E-09   1.067092038950000E-09
   1.094105602530000E-09   1.121803017720000E-09   1.150201596320000E-09
   1.179319088360000E-09   1.209173693220000E-09   1.239784071000000E-09
   1.271169354180000E-09   1.303349159590000E-09   1.336343600650000E-09
   1.370173299960000E-09   1.404859402190000E-09   1.440423587270000E-09
   1.476888083990000E-09   1.514275683840000E-09   1.552609755280000E-09
   1.591914258360000E-09   1.632213759680000E-09   1.673533447730000E-09
   1.715899148660000E-09   1.759337342410000E-09   1.803875179280000E-09
   1.849540496850000E-09   1.896361837450000E-09   1.944368465920000E-09
   1.993590387980000E-09   2.044058368930000E-09   2.095803952890000E-09
   2.148859482560000E-09   2.203258119350000E-09   2.259033864190000E-09
   2.316221578730000E-09   2.374857007150000E-09   2.434976798520000E-09
   2.496618529650000E-09   2.559820728630000E-09   2.624622898890000E-09
   2.691065543910000E-09   2.759190192490000E-09   2.829039424770000E-09
   2.900656898770000E-09   2.974087377770000E-09   3.049376758180000E-09
   3.126572098340000E-09   3.205721647840000E-09   3.286874877720000E-09
   3.370082511400000E-09   3.455396556360000E-09   3.542870336640000E-09
   3.632558526210000E-09   3.724517183120000E-09   3.818803784500000E-09
   3.915477262570000E-09   4.014598041380000E-09   4.116228074650000E-09
   4.220430884470000E-09   4.327271600970000E-09   4.436817003100000E-09
   4.549135560270000E-09   4.664297475260000E-09   4.782374728010000E-09
   4.903441120640000E-09   5.027572323600000E-09   5.154845922920000E-09
   5.285341468740000E-09   5.419140525030000E-09   5.556326720560000E-09
   5.696985801170000E-09   5.841205683350000E-09   5.989076509230000E-09
   6.140690702890000E-09   6.296143028140000E-09   6.455530647740000E-09
   6.618953184130000E-09   6.786512781730000E-09   6.958314170740000E-09
   7.134464732620000E-09   7.315074567210000E-09   7.500256561520000E-09
   7.690126460340000E-09   7.884802938529999E-09   8.084407675230000E-09
   8.289065429900000E-09   8.498904120290001E-09   8.714054902420000E-09
   8.934652252530001E-09   9.160834051150000E-09   9.392741669260000E-09
   9.630520056669999E-09   9.874317832620000E-09   1.012428737860000E-08
   1.038058493390000E-08   1.064337069260000E-08   1.091280890440000E-08
   1.118906797710000E-08   1.147232058150000E-08   1.176274375970000E-08
   1.206051903570000E-08   1.236583252870000E-08   1.267887506950000E-08
   1.299984232000000E-08   1.332893489520000E-08   1.366635848850000E-08
   1.401232400080000E-08   1.436704767170000E-08   1.473075121510000E-08
   1.510366195750000E-08   1.548601298030000E-08   1.587804326530000E-08
   1.627999784430000E-08   1.669212795190000E-08   1.711469118280000E-08
   1.754795165280000E-08   1.799218016380000E-08   1.844765437320000E-08
   1.891465896700000E-08   1.939348583850000E-08   1.988443426990000E-08
   2.038781112000000E-08   2.090393101570000E-08   2.143311654880000E-08
   2.197569847740000E-08   2.253201593300000E-08   2.310241663200000E-08
   2.368725709350000E-08   2.428690286170000E-08   2.490172873480000E-08
   2.553211899900000E-08   2.617846766870000E-08   2.684117873280000E-08
   2.752066640750000E-08   2.821735539450000E-08   2.893168114720000E-08
   2.966409014240000E-08   3.041504015960000E-08   3.118500056700000E-08
   3.197445261490000E-08   3.278388973660000E-08   3.361381785650000E-08
   3.446475570680000E-08   3.533723515140000E-08   3.623180151820000E-08
   3.714901394050000E-08   3.808944570580000E-08   3.905368461450000E-08
   4.004233334750000E-08   4.105600984220000E-08   4.209534767960000E-08
   4.316099647970000E-08   4.425362230750000E-08   4.537390808990000E-08
   4.652255404180000E-08   4.770027810450000E-08   4.890781639380000E-08
   5.014592366030000E-08   5.141537376160000E-08   5.271696014520000E-08
   5.405149634500000E-08   5.541981648950000E-08   5.682277582330000E-08
   5.826125124180000E-08   5.973614183890000E-08   6.124836946920000E-08
   6.279887932430000E-08   6.438864052320000E-08   6.601864671840000E-08
   6.768991671700000E-08   6.940349511689999E-08   7.116045296060000E-08
   7.296188840390000E-08   7.480892740250000E-08   7.670272441600000E-08
   7.864446312920000E-08   8.063535719190000E-08   8.267665097770000E-08
   8.476962036179999E-08   8.691557351800000E-08   8.911585173710000E-08
   9.137183026450000E-08   9.368491916010001E-08   9.605656418000000E-08
   9.848824767940000E-08   1.009814895400000E-07   1.035378481180000E-07
   1.061589212220000E-07   1.088463471070000E-07   1.116018055030000E-07
   1.144270186600000E-07   1.173237524290000E-07   1.202938173620000E-07
   1.233390698470000E-07   1.264614132650000E-07   1.296627991840000E-07
   1.329452285730000E-07   1.363107530570000E-07   1.397614762000000E-07
   1.432995548140000E-07   1.469272003160000E-07   1.506466801000000E-07
   1.544603189630000E-07   1.583705005540000E-07   1.623796688630000E-07
   1.664903297510000E-07   1.707050525150000E-07   1.750264714930000E-07
   1.794572877140000E-07   1.840002705820000E-07   1.886582596080000E-07
   1.934341661880000E-07   1.983309754180000E-07   2.033517479650000E-07
   2.084996219730000E-07   2.137778150330000E-07   2.191896261860000E-07
   2.247384379910000E-07   2.304277186350000E-07   2.362610241040000E-07
   2.422420004050000E-07   2.483743858410000E-07   2.546620133540000E-07
   2.611088129150000E-07   2.677188139840000E-07   2.744961480260000E-07
   2.814450510970000E-07   2.885698664870000E-07   2.958750474360000E-07
   3.033651599220000E-07   3.110448855090000E-07   3.189190242740000E-07
   3.269924978110000E-07   3.352703523040000E-07   3.437577616800000E-07
   3.524600308490000E-07   3.613825990100000E-07   3.705310430590000E-07
   3.799110810720000E-07   3.895285758780000E-07   3.993895387240000E-07
   4.095001330330000E-07   4.198666782560000E-07   4.304956538200000E-07
   4.413937031810000E-07   4.525676379760000E-07   4.640244422770000E-07
   4.757712769600000E-07   4.878154841780000E-07   5.001645919530000E-07
   5.128263188810000E-07   5.258085789510000E-07   5.391194865000000E-07
   5.527673612780000E-07   5.667607336510000E-07   5.811083499320000E-07
   5.958191778480000E-07   6.109024121460000E-07   6.263674803380000E-07