<UPF version="2.0.1">
  <PP_INFO>
    Generated by new atomic code, or converted to UPF format
    Author: 
    Generation date: 
    Pseudopotential type: US
    Element: V
    Functional:  SLA  PZ   NOGX NOGC
    Suggested minimum cutoff for wavefunctions:   0. Ry
    Suggested minimum cutoff for charge density:   0. Ry
    The Pseudo was generated with a Non-Relativistic Calculation
    L component and cutoff radius for Local Potential:  0   0.0000
    Valence configuration: 
    nl pn  l   occ       Rcut    Rcut US       E pseu
    3S  1  0  2.00      0.000      0.000     0.000000
    3P  2  1  6.00      0.000      0.000     0.000000
    4S  1  0  2.00      0.000      0.000     0.000000
    3D  3  2  3.00      0.000      0.000     0.000000
    Generation configuration: not available.
  </PP_INFO>
    <!-- END OF HUMAN READABLE SECTION -->
  <PP_HEADER generated="Generated by new atomic code, or converted to UPF format" author="" date="" comment="" element="V" pseudo_type="US" relativistic="no" is_ultrasoft="true" is_paw="false" is_coulomb="false" has_so="false" has_wfc="false" has_gipaw="false" paw_as_gipaw="false" core_correction="true" functional=" SLA  PZ   NOGX NOGC" z_valence="13.000000000000000" total_psenergy="-144.38686004900001" wfc_cutoff="0.0000000000000000" rho_cutoff="0.0000000000000000" l_max="2" l_max_rho="0" l_local="0" mesh_size="853" number_of_wfc="4" number_of_proj="6"/>
  <PP_MESH>
    <PP_R>
   0.000000000000000E+00   1.842209090430000E-06   3.715908174250000E-06
   5.621635528950000E-06   7.559938633120000E-06   9.531374323739999E-06
   1.153650895610000E-05   1.357591856660000E-05   1.565018903820000E-05
   1.775991626870000E-05   1.990570634170000E-05   2.208817570140000E-05
   2.430795132890000E-05   2.656567092280000E-05   2.886198308220000E-05
   3.119754749330000E-05   3.357303511840000E-05   3.598912838920000E-05
   3.844652140250000E-05   4.094592011980000E-05   4.348804257000000E-05
   4.607361905570000E-05   4.870339236290000E-05   5.137811797470000E-05
   5.409856428790000E-05   5.686551283420000E-05   5.967975850420000E-05
   6.254210977640000E-05   6.545338894880000E-05   6.841443237569999E-05
   7.142609070750000E-05   7.448922913530001E-05   7.760472763970000E-05
   8.077348124290000E-05   8.399640026660000E-05   8.727441059310000E-05
   9.060845393130000E-05   9.399948808729999E-05   9.744848723960000E-05
   1.009564422190000E-04   1.045243607930000E-04   1.081532679550000E-04
   1.118442062210000E-04   1.155982359260000E-04   1.194164355290000E-04
   1.232999019260000E-04   1.272497507610000E-04   1.312671167490000E-04
   1.353531540020000E-04   1.395090363590000E-04   1.437359577260000E-04
   1.480351324130000E-04   1.524077954930000E-04   1.568552031450000E-04
   1.613786330240000E-04   1.659793846230000E-04   1.706587796510000E-04
   1.754181624060000E-04   1.802589001660000E-04   1.851823835830000E-04
   1.901900270780000E-04   1.952832692500000E-04   2.004635732880000E-04
   2.057324273940000E-04   2.110913452080000E-04   2.165418662430000E-04
   2.220855563280000E-04   2.277240080580000E-04   2.334588412520000E-04
   2.392917034150000E-04   2.452242702160000E-04   2.512582459680000E-04
   2.573953641140000E-04   2.636373877290000E-04   2.699861100270000E-04
   2.764433548720000E-04   2.830109773060000E-04   2.896908640790000E-04
   2.964849341950000E-04   3.033951394570000E-04   3.104234650340000E-04
   3.175719300280000E-04   3.248425880540000E-04   3.322375278330000E-04
   3.397588737870000E-04   3.474087866520000E-04   3.551894641020000E-04
   3.631031413740000E-04   3.711520919150000E-04   3.793386280310000E-04
   3.876651015580000E-04   3.961339045290000E-04   4.047474698670000E-04
   4.135082720840000E-04   4.224188279880000E-04   4.314816974100000E-04
   4.406994839350000E-04   4.500748356580000E-04   4.596104459330000E-04
   4.693090541580000E-04   4.791734465550000E-04   4.892064569740000E-04
   4.994109677030000E-04   5.097899103010000E-04   5.203462664390000E-04
   5.310830687520000E-04   5.420034017160000E-04   5.531104025310000E-04
   5.644072620250000E-04   5.758972255650000E-04   5.875835939960000E-04
   5.994697245860000E-04   6.115590319910000E-04   6.238549892330000E-04
   6.363611287040000E-04   6.490810431750000E-04   6.620183868320000E-04
   6.751768763240000E-04   6.885602918290000E-04   7.021724781440000E-04
   7.160173457870001E-04   7.300988721200000E-04   7.444211024940000E-04
   7.589881514070000E-04   7.738042036920000E-04   7.888735157130000E-04
   8.042004165910000E-04   8.197893094510000E-04   8.356446726770000E-04
   8.517710612100000E-04   8.681731078480000E-04   8.848555245830000E-04
   9.018231039500000E-04   9.190807204060000E-04   9.366333317300000E-04
   9.544859804479999E-04   9.726437952810000E-04   9.911119926169999E-04
   1.009895878010000E-03   1.029000847710000E-03   1.048432390210000E-03
   1.068196087800000E-03   1.088297618220000E-03   1.108742756260000E-03
   1.129537375390000E-03   1.150687449510000E-03   1.172199054640000E-03
   1.194078370630000E-03   1.216331682990000E-03   1.238965384680000E-03
   1.261985977900000E-03   1.285400076040000E-03   1.309214405510000E-03
   1.333435807700000E-03   1.358071240960000E-03   1.383127782580000E-03
   1.408612630800000E-03   1.434533106930000E-03   1.460896657430000E-03
   1.487710856030000E-03   1.514983405940000E-03   1.542722142020000E-03
   1.570935033090000E-03   1.599630184150000E-03   1.628815838770000E-03
   1.658500381430000E-03   1.688692339920000E-03   1.719400387790000E-03
   1.750633346900000E-03   1.782400189840000E-03   1.814710042640000E-03
   1.847572187270000E-03   1.880996064410000E-03   1.914991276080000E-03
   1.949567588440000E-03   1.984734934620000E-03   2.020503417490000E-03
   2.056883312660000E-03   2.093885071370000E-03   2.131519323500000E-03
   2.169796880650000E-03   2.208728739210000E-03   2.248326083570000E-03
   2.288600289260000E-03   2.329562926300000E-03   2.371225762440000E-03
   2.413600766630000E-03   2.456700112370000E-03   2.500536181280000E-03
   2.545121566600000E-03   2.590469076870000E-03   2.636591739540000E-03
   2.683502804750000E-03   2.731215749150000E-03   2.779744279760000E-03
   2.829102337860000E-03   2.879304103080000E-03   2.930363997420000E-03
   2.982296689390000E-03   3.035117098250000E-03   3.088840398290000E-03
   3.143482023160000E-03   3.199057670350000E-03   3.255583305660000E-03
   3.313075167830000E-03   3.371549773140000E-03   3.431023920220000E-03
   3.491514694850000E-03   3.553039474840000E-03   3.615615935080000E-03
   3.679262052580000E-03   3.743996111630000E-03   3.809836709080000E-03
   3.876802759650000E-03   3.944913501400000E-03   4.014188501220000E-03
   4.084647660480000E-03   4.156311220740000E-03   4.229199769540000E-03
   4.303334246370000E-03   4.378735948610000E-03   4.455426537720000E-03
   4.533428045410000E-03   4.612762880030000E-03   4.693453832920000E-03
   4.775524085030000E-03   4.858997213570000E-03   4.943897198750000E-03
   5.030248430680000E-03   5.118075716410000E-03   5.207404287020000E-03
   5.298259804870000E-03   5.390668371000000E-03   5.484656532600000E-03
   5.580251290660000E-03   5.677480107690000E-03   5.776370915650000E-03
   5.876952123960000E-03   5.979252627660000E-03   6.083301815690000E-03
   6.189129579380000E-03   6.296766321000000E-03   6.406242962490000E-03
   6.517590954390000E-03   6.630842284810000E-03   6.746029488660000E-03
   6.863185657010000E-03   6.982344446550000E-03   7.103540089300000E-03
   7.226807402420000E-03   7.352181798230000E-03   7.479699294350000E-03
   7.609396524110000E-03   7.741310747010000E-03   7.875479859440000E-03
   8.011942405600001E-03   8.150737588540000E-03   8.291905281420001E-03
   8.435486039000000E-03   8.581521109250000E-03   8.730052445220000E-03
   8.881122717080000E-03   9.034775324400000E-03   9.191054408610001E-03
   9.350004865660001E-03   9.511672358930001E-03   9.676103332380000E-03
   9.843345023830000E-03   1.001344547860000E-02   1.018645356320000E-02
   1.036241897970000E-02   1.054139227930000E-02   1.072342487770000E-02
   1.090856906930000E-02   1.109687804250000E-02   1.128840589470000E-02
   1.148320764830000E-02   1.168133926610000E-02   1.188285766730000E-02
   1.208782074430000E-02   1.229628737910000E-02   1.250831746010000E-02
   1.272397189940000E-02   1.294331265030000E-02   1.316640272530000E-02
   1.339330621380000E-02   1.362408830070000E-02   1.385881528530000E-02
   1.409755460020000E-02   1.434037483040000E-02   1.458734573360000E-02
   1.483853825970000E-02   1.509402457150000E-02   1.535387806520000E-02
   1.561817339170000E-02   1.588698647800000E-02   1.616039454890000E-02
   1.643847614910000E-02   1.672131116620000E-02   1.700898085320000E-02
   1.730156785200000E-02   1.759915621720000E-02   1.790183144020000E-02
   1.820968047380000E-02   1.852279175690000E-02   1.884125524040000E-02
   1.916516241270000E-02   1.949460632610000E-02   1.982968162340000E-02
   2.017048456520000E-02   2.051711305780000E-02   2.086966668060000E-02
   2.122824671560000E-02   2.159295617590000E-02   2.196389983540000E-02
   2.234118425900000E-02   2.272491783340000E-02   2.311521079760000E-02
   2.351217527540000E-02   2.391592530690000E-02   2.432657688170000E-02
   2.474424797210000E-02   2.516905856690000E-02   2.560113070590000E-02
   2.604058851510000E-02   2.648755824230000E-02   2.694216829310000E-02
   2.740454926830000E-02   2.787483400100000E-02   2.835315759480000E-02
   2.883965746300000E-02   2.933447336740000E-02   2.983774745910000E-02
   3.034962431900000E-02   3.087025099950000E-02   3.139977706650000E-02
   3.193835464260000E-02   3.248613845070000E-02   3.304328585850000E-02
   3.360995692370000E-02   3.418631443990000E-02   3.477252398340000E-02
   3.536875396100000E-02   3.597517565790000E-02   3.659196328750000E-02
   3.721929404070000E-02   3.785734813770000E-02   3.850630887890000E-02
   3.916636269840000E-02   3.983769921670000E-02   4.052051129590000E-02
   4.121499509460000E-02   4.192135012460000E-02   4.263977930810000E-02
   4.337048903580000E-02   4.411368922650000E-02   4.486959338730000E-02
   4.563841867470000E-02   4.642038595740000E-02   4.721571987960000E-02
   4.802464892510000E-02   4.884740548370000E-02   4.968422591740000E-02
   5.053535062860000E-02   5.140102412890000E-02   5.228149510950000E-02
   5.317701651270000E-02   5.408784560450000E-02   5.501424404850000E-02
   5.595647798090000E-02   5.691481808750000E-02   5.788953968070000E-02
   5.888092277920000E-02   5.988925218820000E-02   6.091481758120000E-02
   6.195791358330000E-02   6.301883985579999E-02   6.409790118229999E-02
   6.519540755620000E-02   6.631167426980000E-02   6.744702200510000E-02
   6.860177692540000E-02   6.977627076940000E-02   7.097084094660000E-02
   7.218583063380000E-02   7.342158887410000E-02   7.467847067680000E-02
   7.595683711980000E-02   7.725705545309999E-02   7.857949920420000E-02
   7.992454828550000E-02   8.129258910379999E-02   8.268401467060001E-02
   8.409922471550001E-02   8.553862580110000E-02   8.700263143940000E-02
   8.849166221090000E-02   9.000614588530000E-02   9.154651754449999E-02
   9.311321970740000E-02   9.470670245740000E-02   9.632742357100001E-02
   9.797584865020000E-02   9.965245125550000E-02   1.013577130430000E-01
   1.030921239000000E-01   1.048561820900000E-01   1.066503943930000E-01
   1.084752762520000E-01   1.103313519190000E-01   1.122191546090000E-01
   1.141392266520000E-01   1.160921196460000E-01   1.180783946210000E-01
   1.200986221940000E-01   1.221533827390000E-01   1.242432665470000E-01
   1.263688740020000E-01   1.285308157500000E-01   1.307297128750000E-01
   1.329661970770000E-01   1.352409108560000E-01   1.375545076920000E-01
   1.399076522370000E-01   1.423010205040000E-01   1.447353000620000E-01
   1.472111902310000E-01   1.497294022870000E-01   1.522906596640000E-01
   1.548956981610000E-01   1.575452661560000E-01   1.602401248170000E-01
   1.629810483270000E-01   1.657688240980000E-01   1.686042530060000E-01
   1.714881496140000E-01   1.744213424100000E-01   1.774046740420000E-01
   1.804390015660000E-01   1.835251966840000E-01   1.866641460000000E-01
   1.898567512740000E-01   1.931039296790000E-01   1.964066140680000E-01
   1.997657532370000E-01   2.031823122010000E-01   2.066572724740000E-01
   2.101916323420000E-01   2.137864071600000E-01   2.174426296360000E-01
   2.211613501330000E-01   2.249436369670000E-01   2.287905767150000E-01
   2.327032745300000E-01   2.366828544530000E-01   2.407304597420000E-01
   2.448472531930000E-01   2.490344174830000E-01   2.532931555040000E-01
   2.576246907070000E-01   2.620302674590000E-01   2.665111513970000E-01
   2.710686297930000E-01   2.757040119210000E-01   2.804186294380000E-01
   2.852138367610000E-01   2.900910114610000E-01   2.950515546560000E-01
   3.000968914140000E-01   3.052284711630000E-01   3.104477681060000E-01
   3.157562816450000E-01   3.211555368150000E-01   3.266470847170000E-01
   3.322325029670000E-01   3.379133961460000E-01   3.436913962650000E-01
   3.495681632330000E-01   3.555453853310000E-01   3.616247796980000E-01
   3.678080928280000E-01   3.740971010660000E-01   3.804936111220000E-01
   3.869994605920000E-01   3.936165184780000E-01   4.003466857340000E-01
   4.071918958060000E-01   4.141541151920000E-01   4.212353440010000E-01
   4.284376165340000E-01   4.357630018640000E-01   4.432136044330000E-01
   4.507915646550000E-01   4.584990595310000E-01   4.663383032760000E-01
   4.743115479510000E-01   4.824210841170000E-01   4.906692414860000E-01
   4.990583895930000E-01   5.075909384800000E-01   5.162693393809999E-01
   5.250960854350000E-01   5.340737123930001E-01   5.432047993550000E-01
   5.524919695050000E-01   5.619378908679999E-01   5.715452770730000E-01
   5.813168881370000E-01   5.912555312550000E-01   6.013640616070000E-01
   6.116453831770000E-01   6.221024495910000E-01   6.327382649610001E-01
   6.435558847520000E-01   6.545584166560000E-01   6.657490214870000E-01
   6.771309140900000E-01   6.887073642620000E-01   7.004816976940000E-01
   7.124572969230000E-01   7.246376023080000E-01   7.370261130150000E-01
   7.496263880220000E-01   7.624420471459999E-01   7.754767720760000E-01
   7.887343074380000E-01   8.022184618650000E-01   8.159331090920000E-01
   8.298821890740000E-01   8.440697091110000E-01   8.584997450020000E-01
   8.731764422179999E-01   8.881040170900000E-01   9.032867580210000E-01
   9.187290267190000E-01   9.344352594490000E-01   9.504099683080000E-01
   9.666577425210000E-01   9.831832497570000E-01   9.999912374770000E-01
   1.017086534290000E+00   1.034474051340000E+00   1.052158783730000E+00
   1.070145811940000E+00   1.088440303300000E+00   1.107047513450000E+00
   1.125972787890000E+00   1.145221563490000E+00   1.164799370040000E+00
   1.184711831870000E+00   1.204964669440000E+00   1.225563701010000E+00
   1.246514844270000E+00   1.267824118090000E+00   1.289497644210000E+00
   1.311541649000000E+00   1.333962465300000E+00   1.356766534150000E+00
   1.379960406740000E+00   1.403550746210000E+00   1.427544329620000E+00
   1.451948049840000E+00   1.476768917600000E+00   1.502014063460000E+00
   1.527690739850000E+00   1.553806323190000E+00   1.580368315980000E+00
   1.607384348970000E+00   1.634862183340000E+00   1.662809712940000E+00
   1.691234966550000E+00   1.720146110200000E+00   1.749551449500000E+00
   1.779459432040000E+00   1.809878649810000E+00   1.840817841640000E+00
   1.872285895780000E+00   1.904291852390000E+00   1.936844906160000E+00
   1.969954408960000E+00   2.003629872490000E+00   2.037880971080000E+00
   2.072717544390000E+00   2.108149600310000E+00   2.144187317780000E+00
   2.180841049720000E+00   2.218121326070000E+00   2.256038856710000E+00
   2.294604534610000E+00   2.333829438960000E+00   2.373724838300000E+00
   2.414302193820000E+00   2.455573162600000E+00   2.497549600990000E+00
   2.540243568020000E+00   2.583667328820000E+00   2.627833358220000E+00
   2.672754344240000E+00   2.718443191840000E+00   2.764913026510000E+00
   2.812177198160000E+00   2.860249284860000E+00   2.909143096790000E+00
   2.958872680200000E+00   3.009452321430000E+00   3.060896551050000E+00
   3.113220147970000E+00   3.166438143750000E+00   3.220565826900000E+00
   3.275618747260000E+00   3.331612720460000E+00   3.388563832480000E+00
   3.446488444280000E+00   3.505403196470000E+00   3.565325014140000E+00
   3.626271111650000E+00   3.688258997640000E+00   3.751306480030000E+00
   3.815431671140000E+00   3.880652992900000E+00   3.946989182130000E+00
   4.014459295930000E+00   4.083082717170000E+00   4.152879160030000E+00
   4.223868675660000E+00   4.296071657990000E+00   4.369508849540000E+00
   4.444201347390000E+00   4.520170609240000E+00   4.597438459600000E+00
   4.676027096030000E+00   4.755959095520000E+00   4.837257420990000E+00
   4.919945427870000E+00   5.004046870820000E+00   5.089585910570000E+00
   5.176587120830000E+00   5.265075495350000E+00   5.355076455140000E+00
   5.446615855740000E+00   5.539719994630000E+00   5.634415618840000E+00
   5.730729932580000E+00   5.828690605100000E+00   5.928325778610000E+00
   6.029664076350000E+00   6.132734610860000E+00   6.237566992320000E+00
   6.344191337030000E+00   6.452638276100000E+00   6.562938964250000E+00
   6.675125088730000E+00   6.789228878440000E+00   6.905283113180000E+00
   7.023321133100000E+00   7.143376848240000E+00   7.265484748280000E+00
   7.389679912450000E+00   7.515998019620000E+00   7.644475358550000E+00
   7.775148838280000E+00   7.908055998780000E+00   8.043235021690000E+00
   8.180724741350000E+00   8.320564655880000E+00   8.462794938589999E+00
   8.607456449490000E+00   8.754590747020000E+00   8.904240100020001E+00
   9.056447499860001E+00   9.211256672779999E+00   9.368712092450000E+00
   9.528858992780000E+00   9.691743380869999E+00   9.857412050240001E+00
   1.002591259430000E+01   1.019729342000000E+01   1.037160376180000E+01
   1.054889369550000E+01   1.072921415330000E+01   1.091261693760000E+01
   1.109915473660000E+01   1.128888113890000E+01   1.148185064920000E+01
   1.167811870410000E+01   1.187774168740000E+01   1.208077694700000E+01
   1.228728281100000E+01   1.249731860460000E+01   1.271094466690000E+01
   1.292822236860000E+01   1.314921412940000E+01   1.337398343600000E+01
   1.360259486010000E+01   1.383511407750000E+01   1.407160788640000E+01
   1.431214422690000E+01   1.455679220040000E+01   1.480562208960000E+01
   1.505870537850000E+01   1.531611477310000E+01   1.557792422190000E+01
   1.584420893790000E+01   1.611504541960000E+01   1.639051147280000E+01
   1.667068623390000E+01   1.695565019140000E+01   1.724548521010000E+01
   1.754027455390000E+01   1.784010291020000E+01   1.814505641380000E+01
   1.845522267190000E+01   1.877069078930000E+01   1.909155139390000E+01
   1.941789666280000E+01   1.974982034860000E+01   2.008741780650000E+01
   2.043078602190000E+01   2.078002363760000E+01   2.113523098300000E+01
   2.149651010230000E+01   2.186396478390000E+01   2.223770059040000E+01
   2.261782488900000E+01   2.300444688190000E+01   2.339767763830000E+01
   2.379763012560000E+01   2.420441924250000E+01   2.461816185160000E+01
   2.503897681330000E+01   2.546698501940000E+01   2.590230942840000E+01
   2.634507510070000E+01   2.679540923420000E+01   2.725344120120000E+01
   2.771930258550000E+01   2.819312722000000E+01   2.867505122530000E+01
   2.916521304890000E+01   2.966375350480000E+01   3.017081581410000E+01
   3.068654564580000E+01   3.121109115930000E+01   3.174460304620000E+01
   3.228723457430000E+01   3.283914163110000E+01   3.340048276870000E+01
   3.397141924970000E+01   3.455211509300000E+01   3.514273712130000E+01
   3.574345500890000E+01   3.635444133050000E+01   3.697587161050000E+01
   3.760792437380000E+01   3.825078119710000E+01   3.890462676060000E+01
   3.956964890140000E+01   4.024603866760000E+01   4.093399037300000E+01
   4.163370165260000E+01   4.234537352000000E+01   4.306921042470000E+01
   4.380542031120000E+01   4.455421467820000E+01   4.531580863980000E+01
   4.609042098740000E+01   4.687827425190000E+01   4.767959476850000E+01
   4.849461274100000E+01   4.932356230830000E+01   5.016668161150000E+01
   5.102421286260000E+01   5.189640241360000E+01   5.278350082780000E+01
   5.368576295120000E+01   5.460344798650000E+01   5.553681956670000E+01
   5.648614583150000E+01   5.745169950390000E+01   5.843375796870000E+01
   5.943260335250000E+01   6.044852260400000E+01   6.148180757740000E+01
   6.253275511530000E+01   6.360166713460000E+01   6.468885071320000E+01
   6.579461817770000E+01   6.691928719380000E+01   6.806318085709999E+01
   6.922662778620000E+01   7.040996221680000E+01   7.161352409800000E+01
   7.283765918979999E+01   7.408271916270000E+01   7.534906169810000E+01
   7.663705059190001E+01   7.794705585820000E+01   7.927945383639999E+01
   8.063462729840001E+01   8.201296555950000E+01   8.341486458960000E+01
   8.484072712699999E+01   8.629096279460001E+01   8.776598821690000E+01
   8.926622714030000E+01   9.079211055430000E+01   9.234407681579999E+01
   9.392257177450000E+01   9.552804890160000E+01   9.716096941950001E+01
   9.882180243480001E+01   1.005110250730000E+02   1.022291226140000E+02
   1.039765886350000E+02   1.057539251490000E+02   1.075616427500000E+02
   1.094002607600000E+02   1.112703073800000E+02   1.131723198360000E+02
   1.151068445410000E+02   1.170744372460000E+02   1.190756632020000E+02
   1.211110973230000E+02   1.231813243500000E+02   1.252869390180000E+02
   1.274285462310000E+02   1.296067612300000E+02   1.318222097740000E+02
   1.340755283200000E+02   1.363673642010000E+02   1.386983758180000E+02
   1.410692328260000E+02   1.434806163250000E+02   1.459332190600000E+02
   1.484277456150000E+02   1.509649126210000E+02   1.535454489560000E+02
   1.561700959580000E+02   1.588396076370000E+02   1.615547508930000E+02
   1.643163057340000E+02   1.671250655010000E+02   1.699818370960000E+02
   1.728874412140000E+02   1.758427125800000E+02   1.788485001850000E+02
   1.819056675350000E+02   1.850150928930000E+02   1.881776695390000E+02
   1.913943060190000E+02   1.946659264100000E+02   1.979934705860000E+02
   2.013778944850000E+02
    </PP_R>
    <PP_RAB>
   1.826641250310000E-06   1.857865133200000E-06   1.889622744790000E-06
   1.921923208420000E-06   1.954775803410000E-06   1.988189967660000E-06
   2.022175300410000E-06   2.056741565000000E-06   2.091898691630000E-06
   2.127656780280000E-06   2.164026103560000E-06   2.201017109650000E-06
   2.238640425370000E-06   2.276906859170000E-06   2.315827404240000E-06
   2.355413241720000E-06   2.395675743840000E-06   2.436626477240000E-06
   2.478277206280000E-06   2.520639896410000E-06   2.563726717600000E-06
   2.607550047860000E-06   2.652122476800000E-06   2.697456809200000E-06
   2.743566068750000E-06   2.790463501730000E-06   2.838162580890000E-06
   2.886677009230000E-06   2.936020724020000E-06   2.986207900740000E-06
   3.037252957210000E-06   3.089170557690000E-06   3.141975617080000E-06
   3.195683305270000E-06   3.250309051440000E-06   3.305868548490000E-06
   3.362377757620000E-06   3.419852912800000E-06   3.478310525550000E-06
   3.537767389610000E-06   3.598240585780000E-06   3.659747486840000E-06
   3.722305762540000E-06   3.785933384650000E-06   3.850648632160000E-06
   3.916470096500000E-06   3.983416686930000E-06   4.051507635880000E-06
   4.120762504570000E-06   4.191201188600000E-06   4.262843923620000E-06
   4.335711291210000E-06   4.409824224760000E-06   4.485204015470000E-06
   4.561872318500000E-06   4.639851159180000E-06   4.719162939300000E-06
   4.799830443620000E-06   4.881876846350000E-06   4.965325717820000E-06
   5.050201031290000E-06   5.136527169790000E-06   5.224328933150000E-06
   5.313631545120000E-06   5.404460660610000E-06   5.496842373060000E-06
   5.590803221960000E-06   5.686370200440000E-06   5.783570763040000E-06
   5.882432833610000E-06   5.982984813300000E-06   6.085255588740000E-06
   6.189274540370000E-06   6.295071550800000E-06   6.402677013470000E-06
   6.512121841360000E-06   6.623437475830000E-06   6.736655895720000E-06
   6.851809626490000E-06   6.968931749580000E-06   7.088055911900000E-06
   7.209216335530000E-06   7.332447827500000E-06   7.457785789850000E-06
   7.585266229740000E-06   7.714925769840000E-06   7.846801658820001E-06
   7.980931782069999E-06   8.117354672590000E-06   8.256109522030000E-06
   8.397236191970000E-06   8.540775225370000E-06   8.686767858230000E-06
   8.835256031390000E-06   8.986282402650000E-06   9.139890358939999E-06
   9.296124028870000E-06   9.455028295350001E-06   9.616648808490000E-06
   9.781031998750001E-06   9.948225090230001E-06   1.011827611430000E-05
   1.029123392320000E-05   1.046714820460000E-05   1.064606949500000E-05
   1.082804919530000E-05   1.101313958450000E-05   1.120139383560000E-05
   1.139286603040000E-05   1.158761117510000E-05   1.178568521630000E-05
   1.198714505690000E-05   1.219204857220000E-05   1.240045462710000E-05
   1.261242309270000E-05   1.282801486340000E-05   1.304729187460000E-05
   1.327031712020000E-05   1.349715467110000E-05   1.372786969340000E-05
   1.396252846700000E-05   1.420119840490000E-05   1.444394807220000E-05
   1.469084720640000E-05   1.494196673660000E-05   1.519737880480000E-05
   1.545715678580000E-05   1.572137530880000E-05   1.599011027870000E-05
   1.626343889790000E-05   1.654143968840000E-05   1.682419251440000E-05
   1.711177860540000E-05   1.740428057920000E-05   1.770178246610000E-05
   1.800436973250000E-05   1.831212930590000E-05   1.862514959970000E-05
   1.894352053860000E-05   1.926733358440000E-05   1.959668176230000E-05
   1.993165968760000E-05   2.027236359310000E-05   2.061889135630000E-05
   2.097134252810000E-05   2.132981836070000E-05   2.169442183740000E-05
   2.206525770170000E-05   2.244243248750000E-05   2.282605454990000E-05
   2.321623409610000E-05   2.361308321710000E-05   2.401671591990000E-05
   2.442724816050000E-05   2.484479787680000E-05   2.526948502280000E-05
   2.570143160280000E-05   2.614076170680000E-05   2.658760154580000E-05
   2.704207948820000E-05   2.750432609670000E-05   2.797447416600000E-05
   2.845265876030000E-05   2.893901725290000E-05   2.943368936510000E-05
   2.993681720680000E-05   3.044854531670000E-05   3.096902070450000E-05
   3.149839289260000E-05   3.203681395950000E-05   3.258443858320000E-05
   3.314142408550000E-05   3.370793047760000E-05   3.428412050580000E-05
   3.487015969850000E-05   3.546621641330000E-05   3.607246188570000E-05
   3.668907027850000E-05   3.731621873110000E-05   3.795408741130000E-05
   3.860285956630000E-05   3.926272157600000E-05   3.993386300570000E-05
   4.061647666160000E-05   4.131075864520000E-05   4.201690841040000E-05
   4.273512882030000E-05   4.346562620570000E-05   4.420861042450000E-05
   4.496429492160000E-05   4.573289679050000E-05   4.651463683570000E-05
   4.730973963590000E-05   4.811843360890000E-05   4.894095107670000E-05
   4.977752833270000E-05   5.062840570930000E-05   5.149382764720000E-05
   5.237404276540000E-05   5.326930393250000E-05   5.417986833990000E-05
   5.510599757500000E-05   5.604795769690000E-05   5.700601931240000E-05
   5.798045765420000E-05   5.897155265950000E-05   5.997958905070000E-05
   6.100485641720000E-05   6.204764929840000E-05   6.310826726860000E-05
   6.418701502279999E-05   6.528420246440000E-05   6.640014479400001E-05
   6.753516260030000E-05   6.868958195200000E-05   6.986373449129999E-05
   7.105795752970000E-05   7.227259414420000E-05   7.350799327650000E-05
   7.476450983280001E-05   7.604250478600000E-05   7.734234527939999E-05
   7.866440473190000E-05   8.000906294570000E-05   8.137670621500000E-05
   8.276772743730000E-05   8.418252622610000E-05   8.562150902569999E-05
   8.708508922790000E-05   8.857368729110000E-05   9.008773086070000E-05
   9.162765489210000E-05   9.319390177570000E-05   9.478692146390000E-05
   9.640717160040000E-05   9.805511765180000E-05   9.973123304100000E-05
   1.014359992840000E-04   1.031699061260000E-04   1.049334516860000E-04
   1.067271425960000E-04   1.085514941490000E-04   1.104070304450000E-04
   1.122942845450000E-04   1.142137986200000E-04   1.161661241090000E-04
   1.181518218780000E-04   1.201714623780000E-04   1.222256258150000E-04
   1.243149023080000E-04   1.264398920680000E-04   1.286012055610000E-04
   1.307994636930000E-04   1.330352979790000E-04   1.353093507320000E-04
   1.376222752430000E-04   1.399747359710000E-04   1.423674087320000E-04
   1.448009808940000E-04   1.472761515770000E-04   1.497936318470000E-04
   1.523541449300000E-04   1.549584264100000E-04   1.576072244470000E-04
   1.603012999900000E-04   1.630414269950000E-04   1.658283926470000E-04
   1.686629975860000E-04   1.715460561420000E-04   1.744783965600000E-04
   1.774608612440000E-04   1.804943070010000E-04   1.835796052780000E-04
   1.867176424240000E-04   1.899093199360000E-04   1.931555547200000E-04
   1.964572793580000E-04   1.998154423700000E-04   2.032310084920000E-04
   2.067049589500000E-04   2.102382917430000E-04   2.138320219290000E-04
   2.174871819170000E-04   2.212048217640000E-04   2.249860094760000E-04
   2.288318313140000E-04   2.327433921100000E-04   2.367218155780000E-04
   2.407682446430000E-04   2.448838417660000E-04   2.490697892780000E-04
   2.533272897200000E-04   2.576575661910000E-04   2.620618626950000E-04
   2.665414445000000E-04   2.710975985050000E-04   2.757316336040000E-04
   2.804448810660000E-04   2.852386949150000E-04   2.901144523210000E-04
   2.950735539960000E-04   3.001174245930000E-04   3.052475131190000E-04
   3.104652933480000E-04   3.157722642480000E-04   3.211699504090000E-04
   3.266599024820000E-04   3.322436976240000E-04   3.379229399510000E-04
   3.436992610000000E-04   3.495743201950000E-04   3.555498053290000E-04
   3.616274330410000E-04   3.678089493160000E-04   3.740961299860000E-04
   3.804907812340000E-04   3.869947401210000E-04   3.936098751080000E-04