<UPF version="2.0.1">
  <PP_INFO>
    Generated by new atomic code, or converted to UPF format
    Author: 
    Generation date: 
    Pseudopotential type: US
    Element: W
    Functional: SLA  PZ   NOGX NOGC
    Suggested minimum cutoff for wavefunctions:   0. Ry
    Suggested minimum cutoff for charge density:   0. Ry
    The Pseudo was generated with a Non-Relativistic Calculation
    L component and cutoff radius for Local Potential:  0   0.0000
    Valence configuration: 
    nl pn  l   occ       Rcut    Rcut US       E pseu
    5S  1  0  2.00      0.000      0.000     0.000000
    5P  2  1  6.00      0.000      0.000     0.000000
    5D  3  2  3.90      0.000      0.000     0.000000
    6S  1  0  2.00      0.000      0.000     0.000000
    6P  2  1  0.00      0.000      0.000     0.000000
    Generation configuration: not available.
  </PP_INFO>
    <!-- END OF HUMAN READABLE SECTION -->
  <PP_HEADER generated="Generated by new atomic code, or converted to UPF format" author="" date="" comment="" element="W" pseudo_type="US" relativistic="no" is_ultrasoft="true" is_paw="false" is_coulomb="false" has_so="false" has_wfc="false" has_gipaw="false" paw_as_gipaw="false" core_correction="true" functional="SLA  PZ   NOGX NOGC" z_valence="14.000000000000000" total_psenergy="-158.27025511799999" wfc_cutoff="0.0000000000000000" rho_cutoff="0.0000000000000000" l_max="3" l_max_rho="0" l_local="0" mesh_size="923" number_of_wfc="5" number_of_proj="8"/>
  <PP_MESH>
    <PP_R>
   0.000000000000000E+00   5.725785010800000E-07   1.154944432540000E-06
   1.747265096840000E-06   2.349710656240000E-06   2.962454181700000E-06
   3.585671702580000E-06   4.219542257200000E-06   4.864247944320000E-06
   5.519973975400000E-06   6.186908727840000E-06   6.865243799090000E-06
   7.555174061680000E-06   8.256897719250000E-06   8.970616363400000E-06
   9.696535031700000E-06   1.043486226650000E-05   1.118581017500000E-05
   1.194959449000000E-05   1.272643463180000E-05   1.351655377180000E-05
   1.432017889570000E-05   1.513754086960000E-05   1.596887450560000E-05
   1.681441863000000E-05   1.767441615120000E-05   1.854911412970000E-05
   1.943876384940000E-05   2.034362088950000E-05   2.126394519790000E-05
   2.220000116580000E-05   2.315205770420000E-05   2.412038832040000E-05
   2.510527119710000E-05   2.610698927210000E-05   2.712583031950000E-05
   2.816208703270000E-05   2.921605710820000E-05   3.028804333120000E-05
   3.137835366260000E-05   3.248730132750000E-05   3.361520490510000E-05
   3.476238842020000E-05   3.592918143640000E-05   3.711591915090000E-05
   3.832294249040000E-05   3.955059820940000E-05   4.079923898950000E-05
   4.206922354110000E-05   4.336091670620000E-05   4.467468956330000E-05
   4.601091953390000E-05   4.736999049090000E-05   4.875229286930000E-05
   5.015822377760000E-05   5.158818711260000E-05   5.304259367520000E-05
   5.452186128820000E-05   5.602641491660000E-05   5.755668678940000E-05
   5.911311652430000E-05   6.069615125330000E-05   6.230624575170001E-05
   6.394386256840000E-05   6.560947215920000E-05   6.730355302140000E-05
   6.902659183160000E-05   7.077908358560000E-05   7.256153174030000E-05
   7.437444835870000E-05   7.621835425640001E-05   7.809377915220001E-05
   8.000126181910001E-05   8.194135024010000E-05   8.391460176510000E-05
   8.592158327100000E-05   8.796287132480000E-05   9.003905234900000E-05
   9.215072279030000E-05   9.429848929060000E-05   9.648296886190000E-05
   9.870478906269999E-05   1.009645881790000E-04   1.032630154080000E-04
   1.056007310420000E-04   1.079784066620000E-04   1.103967253290000E-04
   1.128563817780000E-04   1.153580826220000E-04   1.179025465500000E-04
   1.204905045380000E-04   1.231227000560000E-04   1.257998892830000E-04
   1.285228413230000E-04   1.312923384290000E-04   1.341091762220000E-04
   1.369741639260000E-04   1.398881245960000E-04   1.428518953580000E-04
   1.458663276440000E-04   1.489322874430000E-04   1.520506555460000E-04
   1.552223278000000E-04   1.584482153640000E-04   1.617292449740000E-04
   1.650663592070000E-04   1.684605167490000E-04   1.719126926790000E-04
   1.754238787370000E-04   1.789950836210000E-04   1.826273332690000E-04
   1.863216711550000E-04   1.900791585920000E-04   1.939008750320000E-04
   1.977879183810000E-04   2.017414053110000E-04   2.057624715830000E-04
   2.098522723710000E-04   2.140119825960000E-04   2.182427972610000E-04
   2.225459317990000E-04   2.269226224160000E-04   2.313741264510000E-04
   2.359017227350000E-04   2.405067119580000E-04   2.451904170460000E-04
   2.499541835350000E-04   2.547993799640000E-04   2.597273982640000E-04
   2.647396541600000E-04   2.698375875740000E-04   2.750226630460000E-04
   2.802963701470000E-04   2.856602239100000E-04   2.911157652680000E-04
   2.966645614910000E-04   3.023082066410000E-04   3.080483220300000E-04
   3.138865566790000E-04   3.198245878030000E-04   3.258641212810000E-04
   3.320068921550000E-04   3.382546651240000E-04   3.446092350520000E-04
   3.510724274850000E-04   3.576460991730000E-04   3.643321386030000E-04
   3.711324665470000E-04   3.780490366060000E-04   3.850838357780000E-04
   3.922388850230000E-04   3.995162398500000E-04   4.069179909010000E-04
   4.144462645560000E-04   4.221032235430000E-04   4.298910675580000E-04
   4.378120338970000E-04   4.458683981010000E-04   4.540624746080000E-04
   4.623966174160000E-04   4.708732207650000E-04   4.794947198180000E-04
   4.882635913650000E-04   4.971823545329999E-04   5.062535715110000E-04
   5.154798482820000E-04   5.248638353790000E-04   5.344082286390000E-04
   5.441157699810000E-04   5.539892481950000E-04   5.640314997390000E-04
   5.742454095580000E-04   5.846339119110000E-04   5.951999912129999E-04
   6.059466828950000E-04   6.168770742720000E-04   6.279943054360001E-04
   6.393015701510000E-04   6.508021167760000E-04   6.624992491950000E-04
   6.743963277680000E-04   6.864967702960000E-04   6.988040530010000E-04
   7.113217115280000E-04   7.240533419570000E-04   7.370026018400000E-04
   7.501732112490000E-04   7.635689538450000E-04   7.771936779650000E-04
   7.910512977280000E-04   8.051457941620000E-04   8.194812163420000E-04
   8.340616825570001E-04   8.488913814940000E-04   8.639745734370000E-04
   8.793155914970000E-04   8.949188428500001E-04   9.107888100080000E-04
   9.269300521070000E-04   9.433472062130000E-04   9.600449886560000E-04
   9.770281963870000E-04   9.943017083510000E-04   1.011870486900000E-03
   1.029739579190000E-03   1.047914118680000E-03   1.066399326560000E-03
   1.085200513260000E-03   1.104323080020000E-03   1.123772520360000E-03
   1.143554421750000E-03   1.163674467130000E-03   1.184138436610000E-03
   1.204952209080000E-03   1.226121763950000E-03   1.247653182810000E-03
   1.269552651230000E-03   1.291826460500000E-03   1.314481009450000E-03
   1.337522806300000E-03   1.360958470510000E-03   1.384794734700000E-03
   1.409038446550000E-03   1.433696570820000E-03   1.458776191310000E-03
   1.484284512920000E-03   1.510228863680000E-03   1.536616696910000E-03
   1.563455593320000E-03   1.590753263210000E-03   1.618517548670000E-03
   1.646756425840000E-03   1.675478007200000E-03   1.704690543920000E-03
   1.734402428180000E-03   1.764622195630000E-03   1.795358527840000E-03
   1.826620254740000E-03   1.858416357240000E-03   1.890755969740000E-03
   1.923648382780000E-03   1.957103045720000E-03   1.991129569420000E-03
   2.025737729070000E-03   2.060937466900000E-03   2.096738895120000E-03
   2.133152298800000E-03   2.170188138790000E-03   2.207857054780000E-03
   2.246169868320000E-03   2.285137585940000E-03   2.324771402300000E-03
   2.365082703440000E-03   2.406083070020000E-03   2.447784280640000E-03
   2.490198315250000E-03   2.533337358600000E-03   2.577213803690000E-03
   2.621840255370000E-03   2.667229533960000E-03   2.713394678920000E-03
   2.760348952610000E-03   2.808105844070000E-03   2.856679072950000E-03
   2.906082593380000E-03   2.956330598050000E-03   3.007437522230000E-03
   3.059418047950000E-03   3.112287108210000E-03   3.166059891280000E-03
   3.220751845030000E-03   3.276378681390000E-03   3.332956380890000E-03
   3.390501197210000E-03   3.449029661850000E-03   3.508558588900000E-03
   3.569105079890000E-03   3.630686528640000E-03   3.693320626310000E-03
   3.757025366470000E-03   3.821819050260000E-03   3.887720291640000E-03
   3.954748022770000E-03   4.022921499420000E-03   4.092260306510000E-03
   4.162784363740000E-03   4.234513931300000E-03   4.307469615710000E-03
   4.381672375730000E-03   4.457143528370000E-03   4.533904755040000E-03
   4.611978107750000E-03   4.691386015470000E-03   4.772151290540000E-03
   4.854297135270000E-03   4.937847148580000E-03   5.022825332760000E-03
   5.109256100400000E-03   5.197164281390000E-03   5.286575130050000E-03
   5.377514332380000E-03   5.470008013460000E-03   5.564082744940000E-03
   5.659765552650000E-03   5.757083924430000E-03   5.856065817960000E-03
   5.956739668810000E-03   6.059134398640000E-03   6.163279423480000E-03
   6.269204662170000E-03   6.376940544980000E-03   6.486518022350000E-03
   6.597968573770000E-03   6.711324216830000E-03   6.826617516400000E-03
   6.943881594030000E-03   7.063150137400000E-03   7.184457410070000E-03
   7.307838261270000E-03   7.433328135930000E-03   7.560963084860000E-03
   7.690779775120000E-03   7.822815500520001E-03   7.957108192369999E-03
   8.093696430380000E-03   8.232619453680000E-03   8.373917172190000E-03
   8.517630178000000E-03   8.663799757070000E-03   8.812467901099999E-03
   8.963677319570000E-03   9.117471452020000E-03   9.273894480530001E-03
   9.432991342400001E-03   9.594807743090000E-03   9.759390169310000E-03
   9.926785902420000E-03   1.009704303200000E-02   1.027021046950000E-02
   1.044633796280000E-02   1.062547610970000E-02   1.080767637320000E-02
   1.099299109600000E-02   1.118147351530000E-02   1.137317777850000E-02
   1.156815895860000E-02   1.176647306980000E-02   1.196817708400000E-02
   1.217332894680000E-02   1.238198759440000E-02   1.259421297030000E-02
   1.281006604290000E-02   1.302960882250000E-02   1.325290437950000E-02
   1.348001686250000E-02   1.371101151630000E-02   1.394595470140000E-02
   1.418491391240000E-02   1.442795779760000E-02   1.467515617880000E-02
   1.492658007130000E-02   1.518230170440000E-02   1.544239454190000E-02
   1.570693330350000E-02   1.597599398600000E-02   1.624965388540000E-02
   1.652799161880000E-02   1.681108714730000E-02   1.709902179880000E-02
   1.739187829140000E-02   1.768974075690000E-02   1.799269476560000E-02
   1.830082735030000E-02   1.861422703150000E-02   1.893298384280000E-02
   1.925718935700000E-02   1.958693671190000E-02   1.992232063770000E-02
   2.026343748370000E-02   2.061038524600000E-02   2.096326359620000E-02
   2.132217390920000E-02   2.168721929320000E-02   2.205850461850000E-02
   2.243613654840000E-02   2.282022356900000E-02   2.321087602120000E-02
   2.360820613180000E-02   2.401232804620000E-02   2.442335786080000E-02
   2.484141365630000E-02   2.526661553230000E-02   2.569908564080000E-02
   2.613894822240000E-02   2.658632964090000E-02   2.704135842030000E-02
   2.750416528180000E-02   2.797488318060000E-02   2.845364734490000E-02
   2.894059531450000E-02   2.943586698000000E-02   2.993960462340000E-02
   3.045195295880000E-02   3.097305917400000E-02   3.150307297270000E-02
   3.204214661750000E-02   3.259043497400000E-02   3.314809555470000E-02
   3.371528856480000E-02   3.429217694780000E-02   3.487892643260000E-02
   3.547570558100000E-02   3.608268583600000E-02   3.670004157140000E-02
   3.732795014150000E-02   3.796659193220000E-02   3.861615041310000E-02
   3.927681218970000E-02   3.994876705740000E-02   4.063220805570000E-02
   4.132733152400000E-02   4.203433715790000E-02   4.275342806650000E-02
   4.348481083050000E-02   4.422869556220000E-02   4.498529596510000E-02
   4.575482939610000E-02   4.653751692700000E-02   4.733358340900000E-02
   4.814325753650000E-02   4.896677191320000E-02   4.980436311890000E-02
   5.065627177720000E-02   5.152274262520000E-02   5.240402458300000E-02
   5.330037082600000E-02   5.421203885710000E-02   5.513929058080000E-02
   5.608239237860000E-02   5.704161518550000E-02   5.801723456750000E-02
   5.900953080130000E-02   6.001878895440000E-02   6.104529896700000E-02
   6.208935573570000E-02   6.315125919770000E-02   6.423131441750000E-02
   6.532983167390000E-02   6.644712654960000E-02   6.758352002199999E-02
   6.873933855479999E-02   6.991491419230000E-02   7.111058465469999E-02
   7.232669343500001E-02   7.356358989770000E-02   7.482162937910000E-02
   7.610117328980000E-02   7.740258921779999E-02   7.872625103490000E-02
   8.007253900340000E-02   8.144183988589999E-02   8.283454705590000E-02
   8.425106061130000E-02   8.569178748900000E-02   8.715714158200000E-02
   8.864754385820001E-02   9.016342248120000E-02   9.170521293380000E-02
   9.327335814230001E-02   9.486830860470000E-02   9.649052251930000E-02
   9.814046591679999E-02   9.981861279400001E-02   1.015254452500000E-01
   1.032614536250000E-01   1.050271366400000E-01   1.068230015420000E-01
   1.086495642480000E-01   1.105073494950000E-01   1.123968909870000E-01
   1.143187315550000E-01   1.162734233040000E-01   1.182615277810000E-01
   1.202836161300000E-01   1.223402692570000E-01   1.244320779980000E-01
   1.265596432910000E-01   1.287235763430000E-01   1.309244988110000E-01
   1.331630429770000E-01   1.354398519310000E-01   1.377555797560000E-01
   1.401108917170000E-01   1.425064644490000E-01   1.449429861530000E-01
   1.474211567960000E-01   1.499416883070000E-01   1.525053047860000E-01
   1.551127427110000E-01   1.577647511490000E-01   1.604620919700000E-01
   1.632055400680000E-01   1.659958835820000E-01   1.688339241240000E-01
   1.717204770080000E-01   1.746563714860000E-01   1.776424509820000E-01
   1.806795733400000E-01   1.837686110660000E-01   1.869104515810000E-01
   1.901059974740000E-01   1.933561667650000E-01   1.966618931640000E-01
   2.000241263420000E-01   2.034438322040000E-01   2.069219931650000E-01
   2.104596084330000E-01   2.140576942980000E-01   2.177172844180000E-01
   2.214394301250000E-01   2.252252007170000E-01   2.290756837750000E-01
   2.329919854660000E-01   2.369752308700000E-01   2.410265642940000E-01
   2.451471496090000E-01   2.493381705800000E-01   2.536008312040000E-01
   2.579363560640000E-01   2.623459906700000E-01   2.668310018250000E-01
   2.713926779870000E-01   2.760323296360000E-01   2.807512896550000E-01
   2.855509137100000E-01   2.904325806400000E-01   2.953976928530000E-01
   3.004476767290000E-01   3.055839830330000E-01   3.108080873240000E-01
   3.161214903870000E-01   3.215257186610000E-01   3.270223246740000E-01
   3.326128874960000E-01   3.382990131870000E-01   3.440823352610000E-01
   3.499645151550000E-01   3.559472427050000E-01   3.620322366330000E-01
   3.682212450390000E-01   3.745160459070000E-01   3.809184476110000E-01
   3.874302894360000E-01   3.940534421100000E-01   4.007898083350000E-01
   4.076413233390000E-01   4.146099554300000E-01   4.216977065620000E-01
   4.289066129070000E-01   4.362387454450000E-01   4.436962105560000E-01
   4.512811506260000E-01   4.589957446600000E-01   4.668422089130000E-01
   4.748227975210000E-01   4.829398031540000E-01   4.911955576700000E-01
   4.995924327880000E-01   5.081328407670000E-01   5.168192351020000E-01
   5.256541112240000E-01   5.346400072240000E-01   5.437795045750000E-01
   5.530752288780000E-01   5.625298506150000E-01   5.721460859160000E-01
   5.819266973380000E-01   5.918744946630000E-01   6.019923357000000E-01
   6.122831271080000E-01   6.227498252340000E-01   6.333954369570000E-01
   6.442230205550000E-01   6.552356865830000E-01   6.664365987680000E-01
   6.778289749150000E-01   6.894160878320000E-01   7.012012662729999E-01
   7.131878958930000E-01   7.253794202170000E-01   7.377793416350000E-01
   7.503912224040000E-01   7.632186856730000E-01   7.762654165250000E-01
   7.895351630320000E-01   8.030317373370000E-01   8.167590167430000E-01
   8.307209448330000E-01   8.449215325980000E-01   8.593648595920000E-01
   8.740550751040000E-01   8.889963993480000E-01   9.041931246779999E-01
   9.196496168190000E-01   9.353703161210000E-01   9.513597388390000E-01
   9.676224784220000E-01   9.841632068420000E-01   1.000986675930000E+00
   1.018097718740000E+00   1.035501250950000E+00   1.053202272260000E+00
   1.071205867820000E+00   1.089517209710000E+00   1.108141558450000E+00
   1.127084264430000E+00   1.146350769540000E+00   1.165946608660000E+00
   1.185877411300000E+00   1.206148903200000E+00   1.226766907960000E+00
   1.247737348740000E+00   1.269066249930000E+00   1.290759738930000E+00
   1.312824047840000E+00   1.335265515320000E+00   1.358090588370000E+00
   1.381305824190000E+00   1.404917892060000E+00   1.428933575280000E+00
   1.453359773090000E+00   1.478203502660000E+00   1.503471901120000E+00
   1.529172227580000E+00   1.555311865260000E+00   1.581898323560000E+00
   1.608939240260000E+00   1.636442383690000E+00   1.664415654980000E+00
   1.692867090300000E+00   1.721804863200000E+00   1.751237286940000E+00
   1.781172816880000E+00   1.811620052940000E+00   1.842587742000000E+00
   1.874084780490000E+00   1.906120216890000E+00   1.938703254370000E+00
   1.971843253400000E+00   2.005549734460000E+00   2.039832380780000E+00
   2.074701041090000E+00   2.110165732490000E+00   2.146236643290000E+00
   2.182924135960000E+00   2.220238750130000E+00   2.258191205550000E+00
   2.296792405220000E+00   2.336053438530000E+00   2.375985584410000E+00
   2.416600314600000E+00   2.457909296920000E+00   2.499924398630000E+00
   2.542657689880000E+00   2.586121447100000E+00   2.630328156590000E+00
   2.675290518080000E+00   2.721021448400000E+00   2.767534085140000E+00
   2.814841790500000E+00   2.862958155050000E+00   2.911897001710000E+00
   2.961672389650000E+00   3.012298618380000E+00   3.063790231830000E+00
   3.116162022560000E+00   3.169429035950000E+00   3.223606574600000E+00
   3.278710202670000E+00   3.334755750350000E+00   3.391759318450000E+00
   3.449737282990000E+00   3.508706299920000E+00   3.568683309900000E+00
   3.629685543160000E+00   3.691730524460000E+00   3.754836078120000E+00
   3.819020333150000E+00   3.884301728450000E+00   3.950699018090000E+00
   4.018231276740000E+00   4.086917905090000E+00   4.156778635500000E+00
   4.227833537600000E+00   4.300103024080000E+00   4.373607856570000E+00
   4.448369151590000E+00   4.524408386610000E+00   4.601747406240000E+00
   4.680408428460000E+00   4.760414051080000E+00   4.841787258170000E+00
   4.924551426660000E+00   5.008730333110000E+00   5.094348160480000E+00
   5.181429505120000E+00   5.269999383810000E+00   5.360083240980000E+00
   5.451706955950000E+00   5.544896850470000E+00   5.639679696170000E+00
   5.736082722340000E+00   5.834133623710000E+00   5.933860568380000E+00
   6.035292206000000E+00   6.138457675910000E+00   6.243386615540000E+00
   6.350109168960000E+00   6.458655995480000E+00   6.569058278510000E+00
   6.681347734500000E+00   6.795556622020000E+00   6.911717751080000E+00
   7.029864492520000E+00   7.150030787630000E+00   7.272251157840000E+00
   7.396560714710000E+00   7.522995169970000E+00   7.651590845780000E+00
   7.782384685210000E+00   7.915414262780000E+00   8.050717795320001E+00
   8.188334152920000E+00   8.328302870090001E+00   8.470664157140000E+00
   8.615458911710000E+00   8.762728730530000E+00   8.912515921380001E+00
   9.064863515200001E+00   9.219815278530000E+00   9.377415725990000E+00
   9.537710133159999E+00   9.700744549500000E+00   9.866565811670000E+00
   1.003522155690000E+01   1.020676023670000E+01   1.038123113080000E+01
   1.055868436140000E+01   1.073917090730000E+01   1.092274261880000E+01
   1.110945223250000E+01   1.129935338650000E+01   1.149250063570000E+01
   1.168894946750000E+01   1.188875631800000E+01   1.209197858770000E+01
   1.229867465850000E+01   1.250890391020000E+01   1.272272673750000E+01
   1.294020456770000E+01   1.316139987780000E+01   1.338637621310000E+01
   1.361519820480000E+01   1.384793158920000E+01   1.408464322590000E+01
   1.432540111770000E+01   1.457027442970000E+01   1.481933350910000E+01
   1.507264990600000E+01   1.533029639310000E+01   1.559234698740000E+01
   1.585887697080000E+01   1.612996291230000E+01   1.640568268970000E+01
   1.668611551190000E+01   1.697134194180000E+01   1.726144391940000E+01
   1.755650478550000E+01   1.785660930530000E+01   1.816184369300000E+01
   1.847229563660000E+01   1.878805432290000E+01   1.910921046320000E+01
   1.943585631960000E+01   1.976808573100000E+01   2.010599414060000E+01
   2.044967862280000E+01   2.079923791160000E+01   2.115477242860000E+01
   2.151638431190000E+01   2.188417744570000E+01   2.225825748990000E+01
   2.263873191030000E+01   2.302571001000000E+01   2.341930296020000E+01
   2.381962383260000E+01   2.422678763160000E+01   2.464091132750000E+01
   2.506211389010000E+01   2.549051632260000E+01   2.592624169680000E+01
   2.636941518810000E+01   2.682016411180000E+01   2.727861795930000E+01
   2.774490843550000E+01   2.821916949660000E+01   2.870153738870000E+01
   2.919215068670000E+01   2.969115033430000E+01   3.019867968440000E+01
   3.071488454050000E+01   3.123991319820000E+01   3.177391648810000E+01
   3.231704781890000E+01   3.286946322190000E+01   3.343132139510000E+01
   3.400278374980000E+01   3.458401445580000E+01   3.517518048960000E+01
   3.577645168170000E+01   3.638800076560000E+01   3.701000342770000E+01
   3.764263835720000E+01   3.828608729800000E+01   3.894053510030000E+01
   3.960616977450000E+01   4.028318254450000E+01   4.097176790290000E+01
   4.167212366700000E+01   4.238445103550000E+01   4.310895464620000E+01
   4.384584263500000E+01   4.459532669560000E+01   4.535762214020000E+01
   4.613294796150000E+01   4.692152689570000E+01   4.772358548630000E+01
   4.853935414910000E+01   4.936906723860000E+01   5.021296311550000E+01
   5.107128421470000E+01   5.194427711510000E+01   5.283219261080000E+01
   5.373528578280000E+01   5.465381607210000E+01   5.558804735490000E+01
   5.653824801750000E+01   5.750469103440000E+01   5.848765404590000E+01
   5.948741943820000E+01   6.050427442470000E+01   6.153851112790000E+01
   6.259042666430000E+01   6.366032322860000E+01   6.474850818160000E+01
   6.585529413760000E+01   6.698099905500000E+01   6.812594632680000E+01
   6.929046487430000E+01   7.047488924120000E+01   7.167955968970000E+01
   7.290482229820000E+01   7.415102906100000E+01   7.541853798920000E+01
   7.670771321350000E+01   7.801892508920000E+01   7.935255030190000E+01
   8.070897197639999E+01   8.208857978640000E+01   8.349177006650000E+01
   8.491894592609999E+01   8.637051736520000E+01   8.784690139230000E+01
   8.934852214390000E+01   9.087581100650000E+01   9.242920674070000E+01
   9.400915560700000E+01   9.561611149430000E+01   9.725053604970000E+01
   9.891289881190001E+01   1.006036773450000E+02   1.023233573780000E+02
   1.040724329420000E+02   1.058514065100000E+02   1.076607891500000E+02
   1.095011006600000E+02   1.113728697270000E+02   1.132766340740000E+02
   1.152129406160000E+02   1.171823456150000E+02   1.191854148450000E+02
   1.212227237470000E+02   1.232948576020000E+02   1.254024116940000E+02
   1.275459914810000E+02   1.297262127730000E+02   1.319437019050000E+02
   1.341990959190000E+02   1.364930427470000E+02   1.388262013940000E+02
   1.411992421310000E+02   1.436128466880000E+02   1.460677084470000E+02
   1.485645326410000E+02   1.511040365610000E+02   1.536869497560000E+02
   1.563140142470000E+02   1.589859847390000E+02   1.617036288380000E+02
   1.644677272690000E+02   1.672790741060000E+02   1.701384769940000E+02
   1.730467573830000E+02   1.760047507670000E+02   1.790133069190000E+02
   1.820732901400000E+02   1.851855795030000E+02   1.883510691100000E+02
   1.915706683440000E+02   1.948453021330000E+02   1.981759112170000E+02
   2.015634524150000E+02   2.050088989020000E+02
    </PP_R>
    <PP_RAB>
   5.677398480680000E-07   5.774445684260000E-07   5.873151774330000E-07
   5.973545107269999E-07   6.075654524110000E-07   6.179509358940000E-07
   6.285139447220001E-07   6.392575134450000E-07   6.501847284810000E-07
   6.612987290070000E-07   6.726027078620000E-07   6.840999124600000E-07
   6.957936457240000E-07   7.076872670390000E-07   7.197841932110000E-07
   7.320878994530000E-07   7.446019203820000E-07   7.573298510350000E-07
   7.702753478980000E-07   7.834421299640000E-07   7.968339797930000E-07
   8.104547446060000E-07   8.243083373830000E-07   8.383987379950000E-07
   8.527299943400000E-07   8.673062235120000E-07   8.821316129780000E-07
   8.972104217870000E-07   9.125469817890000E-07   9.281456988790000E-07
   9.440110542690000E-07   9.601476057669999E-07   9.765599890930001E-07
   9.932529192060000E-07   1.010231191660000E-06   1.027499683990000E-06
   1.045063357100000E-06   1.062927256680000E-06   1.081096514700000E-06
   1.099576350830000E-06   1.118372073960000E-06   1.137489083750000E-06
   1.156932872140000E-06   1.176709024960000E-06   1.196823223510000E-06
   1.217281246210000E-06   1.238088970260000E-06   1.259252373310000E-06
   1.280777535210000E-06   1.302670639700000E-06   1.324937976260000E-06
   1.347585941860000E-06   1.370621042830000E-06   1.394049896700000E-06
   1.417879234130000E-06   1.442115900830000E-06   1.466766859510000E-06
   1.491839191940000E-06   1.517340100890000E-06   1.543276912300000E-06
   1.569657077290000E-06   1.596488174400000E-06   1.623777911660000E-06
   1.651534128890000E-06   1.679764799920000E-06   1.708478034870000E-06
   1.737682082500000E-06   1.767385332570000E-06   1.797596318240000E-06
   1.828323718550000E-06   1.859576360890000E-06   1.891363223530000E-06
   1.923693438220000E-06   1.956576292820000E-06   1.990021233920000E-06
   2.024037869610000E-06   2.058635972220000E-06   2.093825481100000E-06
   2.129616505530000E-06   2.166019327570000E-06   2.203044405050000E-06
   2.240702374560000E-06   2.279004054490000E-06   2.317960448200000E-06
   2.357582747080000E-06   2.397882333870000E-06   2.438870785850000E-06
   2.480559878210000E-06   2.522961587430000E-06   2.566088094680000E-06
   2.609951789400000E-06   2.654565272750000E-06   2.699941361340000E-06
   2.746093090840000E-06   2.793033719740000E-06   2.840776733180000E-06
   2.889335846810000E-06   2.938725010720000E-06   2.988958413450000E-06
   3.040050486100000E-06   3.092015906420000E-06   3.144869603080000E-06
   3.198626759930000E-06   3.253302820340000E-06   3.308913491700000E-06
   3.365474749880000E-06   3.423002843820000E-06   3.481514300250000E-06
   3.541025928360000E-06   3.601554824700000E-06   3.663118378050000E-06
   3.725734274430000E-06   3.789420502160000E-06   3.854195357080000E-06
   3.920077447740000E-06   3.987085700800000E-06   4.055239366420000E-06
   4.124558023850000E-06   4.195061586980000E-06   4.266770310120000E-06
   4.339704793810000E-06   4.413885990710000E-06   4.489335211640000E-06
   4.566074131710000E-06   4.644124796510000E-06   4.723509628510000E-06
   4.804251433410000E-06   4.886373406790000E-06   4.969899140690000E-06
   5.054852630440000E-06   5.141258281530000E-06   5.229140916650000E-06
   5.318525782760000E-06   5.409438558410000E-06   5.501905361080000E-06
   5.595952754690000E-06   5.691607757240000E-06   5.788897848570000E-06
   5.887850978230000E-06   5.988495573530000E-06   6.090860547740000E-06
   6.194975308310000E-06   6.300869765420000E-06   6.408574340480000E-06
   6.518119974940000E-06   6.629538139130000E-06   6.742860841350000E-06
   6.858120637000000E-06   6.975350638000000E-06   7.094584522270000E-06
   7.215856543380000E-06   7.339201540440000E-06   7.464654948080000E-06
   7.592252806650000E-06   7.722031772530001E-06   7.854029128709999E-06
   7.988282795470000E-06   8.124831341300000E-06   8.263713993960000E-06
   8.404970651730000E-06   8.548641894929999E-06   8.694768997530000E-06
   8.843393939000000E-06   8.994559416429999E-06   9.148308856719999E-06
   9.304686429130001E-06   9.463737057889999E-06   9.625506435170000E-06
   9.790041034190000E-06   9.957388122560000E-06   1.012759577580000E-05
   1.030071289140000E-05   1.047678920250000E-05   1.065587529240000E-05
   1.083802260900000E-05   1.102328347980000E-05   1.121171112660000E-05
   1.140335968110000E-05   1.159828420020000E-05   1.179654068190000E-05
   1.199818608140000E-05   1.220327832770000E-05   1.241187633960000E-05
   1.262404004350000E-05   1.283983038970000E-05   1.305930937080000E-05
   1.328254003870000E-05   1.350958652340000E-05   1.374051405090000E-05
   1.397538896210000E-05   1.421427873220000E-05   1.445725198950000E-05
   1.470437853550000E-05   1.495572936490000E-05   1.521137668600000E-05
   1.547139394120000E-05   1.573585582860000E-05   1.600483832280000E-05
   1.627841869730000E-05   1.655667554660000E-05   1.683968880830000E-05
   1.712753978680000E-05   1.742031117610000E-05   1.771808708360000E-05
   1.802095305470000E-05   1.832899609690000E-05   1.864230470490000E-05
   1.896096888640000E-05   1.928508018730000E-05   1.961473171860000E-05
   1.995001818280000E-05   2.029103590110000E-05   2.063788284140000E-05
   2.099065864600000E-05   2.134946466070000E-05   2.171440396350000E-05
   2.208558139440000E-05   2.246310358540000E-05   2.284707899130000E-05
   2.323761792100000E-05   2.363483256860000E-05   2.403883704630000E-05
   2.444974741670000E-05   2.486768172640000E-05   2.529276003980000E-05
   2.572510447380000E-05   2.616483923240000E-05   2.661209064310000E-05
   2.706698719250000E-05   2.752965956350000E-05   2.800024067290000E-05
   2.847886570970000E-05   2.896567217350000E-05   2.946079991450000E-05
   2.996439117310000E-05   3.047659062150000E-05   3.099754540460000E-05
   3.152740518270000E-05   3.206632217430000E-05   3.261445119960000E-05
   3.317194972570000E-05   3.373897791110000E-05   3.431569865190000E-05
   3.490227762890000E-05   3.549888335480000E-05   3.610568722310000E-05