<UPF version="2.0.1">
  <PP_INFO>
    Generated by new atomic code, or converted to UPF format
    Author: 
    Generation date: 
    Pseudopotential type: US
    Element: Y
    Functional:  SLA  PZ   NOGX NOGC
    Suggested minimum cutoff for wavefunctions:   0. Ry
    Suggested minimum cutoff for charge density:   0. Ry
    The Pseudo was generated with a Non-Relativistic Calculation
    L component and cutoff radius for Local Potential:  0   0.0000
    Valence configuration: 
    nl pn  l   occ       Rcut    Rcut US       E pseu
    4S  1  0  2.00      0.000      0.000     0.000000
    4P  2  1  6.00      0.000      0.000     0.000000
    4D  3  2  1.00      0.000      0.000     0.000000
    5S  1  0  2.00      0.000      0.000     0.000000
    5P  2  1  0.00      0.000      0.000     0.000000
    Generation configuration: not available.
  </PP_INFO>
    <!-- END OF HUMAN READABLE SECTION -->
  <PP_HEADER generated="Generated by new atomic code, or converted to UPF format" author="" date="" comment="" element="Y" pseudo_type="US" relativistic="no" is_ultrasoft="true" is_paw="false" is_coulomb="false" has_so="false" has_wfc="false" has_gipaw="false" paw_as_gipaw="false" core_correction="true" functional=" SLA  PZ   NOGX NOGC" z_valence="11.000000000000000" total_psenergy="-92.443536175000006" wfc_cutoff="0.0000000000000000" rho_cutoff="0.0000000000000000" l_max="2" l_max_rho="0" l_local="0" mesh_size="885" number_of_wfc="5" number_of_proj="6"/>
  <PP_MESH>
    <PP_R>
   0.000000000000000E+00   1.086431002050000E-06   2.191433025840000E-06
   3.315323517080000E-06   4.458425347740000E-06   5.621066908870000E-06
   6.803582204890000E-06   8.006310949559999E-06   9.229598663580000E-06
   1.047379677380000E-05   1.173926271440000E-05   1.302636002900000E-05
   1.433545847600000E-05   1.566693413400000E-05   1.702116951000000E-05
   1.839855364990000E-05   1.979948224930000E-05   2.122435776800000E-05
   2.267358954510000E-05   2.414759391680000E-05   2.564679433620000E-05
   2.717162149440000E-05   2.872251344480000E-05   3.029991572870000E-05
   3.190428150310000E-05   3.353607167140000E-05   3.519575501530000E-05
   3.688380832970000E-05   3.860071655960000E-05   4.034697293950000E-05
   4.212307913520000E-05   4.392954538750000E-05   4.576689065930000E-05
   4.763564278430000E-05   4.953633861880000E-05   5.146952419590000E-05
   5.343575488250000E-05   5.543559553860000E-05   5.746962067980000E-05
   5.953841464190000E-05   6.164257174970000E-05   6.378269648660000E-05
   6.595940366910000E-05   6.817331862300000E-05   7.042507736330000E-05
   7.271532677670000E-05   7.504472480750000E-05   7.741394064670000E-05
   7.982365492410000E-05   8.227455990410000E-05   8.476735968430000E-05
   8.730277039760000E-05   8.988152041870000E-05   9.250435057250001E-05
   9.517201434720000E-05   9.788527811120001E-05   1.006449213330000E-04
   1.034517368030000E-04   1.063065308670000E-04   1.092101236520000E-04
   1.121633493030000E-04   1.151670562240000E-04   1.182221073240000E-04
   1.213293802580000E-04   1.244897676870000E-04   1.277041775280000E-04
   1.309735332190000E-04   1.342987739830000E-04   1.376808550970000E-04
   1.411207481680000E-04   1.446194414100000E-04   1.481779399300000E-04
   1.517972660160000E-04   1.554784594300000E-04   1.592225777080000E-04
   1.630306964630000E-04   1.669039096930000E-04   1.708433300980000E-04
   1.748500893970000E-04   1.789253386540000E-04   1.830702486100000E-04
   1.872860100160000E-04   1.915738339810000E-04   1.959349523120000E-04
   2.003706178740000E-04   2.048821049490000E-04   2.094707095990000E-04
   2.141377500410000E-04   2.188845670270000E-04   2.237125242240000E-04
   2.286230086110000E-04   2.336174308760000E-04   2.386972258190000E-04
   2.438638527680000E-04   2.491187959930000E-04   2.544635651390000E-04
   2.598996956540000E-04   2.654287492340000E-04   2.710523142680000E-04
   2.767720062980000E-04   2.825894684810000E-04   2.885063720610000E-04
   2.945244168500000E-04   3.006453317160000E-04   3.068708750790000E-04
   3.132028354180000E-04   3.196430317810000E-04   3.261933143130000E-04
   3.328555647840000E-04   3.396316971280000E-04   3.465236579980000E-04
   3.535334273200000E-04   3.606630188660000E-04   3.679144808300000E-04
   3.752898964150000E-04   3.827913844370000E-04   3.904210999270000E-04
   3.981812347550000E-04   4.060740182580000E-04   4.141017178800000E-04
   4.222666398230000E-04   4.305711297120000E-04   4.390175732650000E-04
   4.476083969840000E-04   4.563460688440000E-04   4.652330990100000E-04
   4.742720405540000E-04   4.834654901890000E-04   4.928160890150000E-04
   5.023265232780000E-04   5.119995251410000E-04   5.218378734720000E-04
   5.318443946370000E-04   5.420219633159999E-04   5.523735033280000E-04
   5.629019884700000E-04   5.736104433710000E-04   5.845019443640001E-04
   5.955796203660001E-04   6.068466537790000E-04   6.183062814040000E-04
   6.299617953700000E-04   6.418165440810000E-04   6.538739331760000E-04
   6.661374265100000E-04   6.786105471480000E-04   6.912968783760000E-04
   7.042000647300000E-04   7.173238130480000E-04   7.306718935270000E-04
   7.442481408130000E-04   7.580564551000000E-04   7.721008032480000E-04
   7.863852199270000E-04   8.009138087740000E-04   8.156907435710000E-04
   8.307202694450000E-04   8.460067040890001E-04   8.615544389990000E-04
   8.773679407390000E-04   8.934517522210000E-04   9.098104940140000E-04
   9.264488656670000E-04   9.433716470630000E-04   9.605836997890000E-04
   9.780899685360000E-04   9.958954825140000E-04   1.014005356900000E-03
   1.032424794320000E-03   1.051159086320000E-03   1.070213614890000E-03
   1.089593854030000E-03   1.109305371320000E-03   1.129353829480000E-03
   1.149744988060000E-03   1.170484705030000E-03   1.191578938520000E-03
   1.213033748490000E-03   1.234855298500000E-03   1.257049857450000E-03
   1.279623801410000E-03   1.302583615430000E-03   1.325935895440000E-03
   1.349687350080000E-03   1.373844802690000E-03   1.398415193240000E-03
   1.423405580320000E-03   1.448823143190000E-03   1.474675183830000E-03
   1.500969129020000E-03   1.527712532510000E-03   1.554913077160000E-03
   1.582578577160000E-03   1.610716980270000E-03   1.639336370110000E-03
   1.668444968480000E-03   1.698051137710000E-03   1.728163383090000E-03
   1.758790355280000E-03   1.789940852810000E-03   1.821623824630000E-03
   1.853848372630000E-03   1.886623754310000E-03   1.919959385390000E-03
   1.953864842570000E-03   1.988349866210000E-03   2.023424363210000E-03
   2.059098409780000E-03   2.095382254390000E-03   2.132286320690000E-03
   2.169821210500000E-03   2.207997706860000E-03   2.246826777150000E-03
   2.286319576200000E-03   2.326487449540000E-03   2.367341936620000E-03
   2.408894774130000E-03   2.451157899410000E-03   2.494143453830000E-03
   2.537863786320000E-03   2.582331456870000E-03   2.627559240190000E-03
   2.673560129350000E-03   2.720347339500000E-03   2.767934311720000E-03
   2.816334716810000E-03   2.865562459290000E-03   2.915631681310000E-03
   2.966556766810000E-03   3.018352345570000E-03   3.071033297470000E-03
   3.124614756720000E-03   3.179112116230000E-03   3.234541032050000E-03
   3.290917427820000E-03   3.348257499410000E-03   3.406577719490000E-03
   3.465894842340000E-03   3.526225908620000E-03   3.587588250280000E-03
   3.649999495530000E-03   3.713477573920000E-03   3.778040721470000E-03
   3.843707485920000E-03   3.910496732070000E-03   3.978427647160000E-03
   4.047519746440000E-03   4.117792878740000E-03   4.189267232150000E-03
   4.261963339890000E-03   4.335902086130000E-03   4.411104712060000E-03
   4.487592821910000E-03   4.565388389260000E-03   4.644513763260000E-03
   4.724991675100000E-03   4.806845244520000E-03   4.890097986480000E-03
   4.974773817870000E-03   5.060897064430000E-03   5.148492467690000E-03
   5.237585192120000E-03   5.328200832340000E-03   5.420365420460000E-03
   5.514105433590000E-03   5.609447801420000E-03   5.706419913970000E-03
   5.805049629440000E-03   5.905365282250000E-03   6.007395691150000E-03
   6.111170167490000E-03   6.216718523670000E-03   6.324071081700000E-03
   6.433258681880000E-03   6.544312691710000E-03   6.657265014840000E-03
   6.772148100300000E-03   6.888994951780000E-03   7.007839137110000E-03
   7.128714797920000E-03   7.251656659460000E-03   7.376700040550000E-03
   7.503880863720000E-03   7.633235665570000E-03   7.764801607230000E-03
   7.898616485040000E-03   8.034718741439999E-03   8.173147475970000E-03
   8.313942456509999E-03   8.457144130760000E-03   8.602793637769999E-03
   8.750932819839999E-03   8.901604234469999E-03   9.054851166659999E-03
   9.210717641290000E-03   9.369248435759999E-03   9.530489092919999E-03
   9.694485934090001E-03   9.861286072380000E-03   1.003093742620000E-02
   1.020348873320000E-02   1.037898956400000E-02   1.055749033650000E-02
   1.073904233070000E-02   1.092369770280000E-02   1.111150950070000E-02
   1.130253167930000E-02   1.149681911540000E-02   1.169442762400000E-02
   1.189541397440000E-02   1.209983590590000E-02   1.230775214500000E-02
   1.251922242200000E-02   1.273430748830000E-02   1.295306913370000E-02
   1.317557020410000E-02   1.340187461970000E-02   1.363204739350000E-02
   1.386615464960000E-02   1.410426364250000E-02   1.434644277640000E-02
   1.459276162460000E-02   1.484329094970000E-02   1.509810272400000E-02
   1.535727014990000E-02   1.562086768130000E-02   1.588897104470000E-02
   1.616165726080000E-02   1.643900466730000E-02   1.672109294050000E-02
   1.700800311920000E-02   1.729981762690000E-02   1.759662029640000E-02
   1.789849639330000E-02   1.820553264070000E-02   1.851781724430000E-02
   1.883543991740000E-02   1.915849190680000E-02   1.948706601910000E-02
   1.982125664730000E-02   2.016115979790000E-02   2.050687311840000E-02
   2.085849592570000E-02   2.121612923420000E-02   2.157987578490000E-02
   2.194984007530000E-02   2.232612838890000E-02   2.270884882600000E-02
   2.309811133500000E-02   2.349402774320000E-02   2.389671178990000E-02
   2.430627915840000E-02   2.472284750940000E-02   2.514653651500000E-02
   2.557746789290000E-02   2.601576544130000E-02   2.646155507450000E-02
   2.691496485940000E-02   2.737612505180000E-02   2.784516813410000E-02
   2.832222885330000E-02   2.880744425960000E-02   2.930095374620000E-02
   2.980289908870000E-02   3.031342448630000E-02   3.083267660300000E-02
   3.136080461000000E-02   3.189796022830000E-02   3.244429777220000E-02
   3.299997419390000E-02   3.356514912850000E-02   3.413998493990000E-02
   3.472464676720000E-02   3.531930257250000E-02   3.592412318890000E-02
   3.653928236960000E-02   3.716495683800000E-02   3.780132633830000E-02
   3.844857368700000E-02   3.910688482580000E-02   3.977644887480000E-02
   4.045745818680000E-02   4.115010840250000E-02   4.185459850700000E-02
   4.257113088660000E-02   4.329991138730000E-02   4.404114937350000E-02
   4.479505778860000E-02   4.556185321590000E-02   4.634175594090000E-02
   4.713499001450000E-02   4.794178331760000E-02   4.876236762620000E-02
   4.959697867840000E-02   5.044585624170000E-02   5.130924418220000E-02
   5.218739053460000E-02   5.308054757340000E-02   5.398897188520000E-02
   5.491292444290000E-02   5.585267068000000E-02   5.680848056750000E-02
   5.778062869110000E-02   5.876939433020000E-02   5.977506153790000E-02
   6.079791922300000E-02   6.183826123270000E-02   6.289638643720000E-02
   6.397259881530000E-02   6.506720754200000E-02   6.618052707730000E-02
   6.731287725620000E-02   6.846458338109999E-02   6.963597631490000E-02
   7.082739257610000E-02   7.203917443549999E-02   7.327167001470000E-02
   7.452523338560001E-02   7.580022467290000E-02   7.709701015690000E-02
   7.841596237890000E-02   7.975746024840000E-02   8.112188915180001E-02
   8.250964106300000E-02   8.392111465639999E-02   8.535671542100000E-02
   8.681685577709999E-02   8.830195519490000E-02   8.981244031450000E-02
   9.134874506920000E-02   9.291131080970000E-02   9.450058643070000E-02
   9.611702850040001E-02   9.776110139140000E-02   9.943327741400000E-02
   1.011340369520000E-01   1.028638686010000E-01   1.046232693070000E-01
   1.064127445130000E-01   1.082328083010000E-01   1.100839835380000E-01
   1.119668020330000E-01   1.138818046830000E-01   1.158295416300000E-01
   1.178105724220000E-01   1.198254661700000E-01   1.218748017150000E-01
   1.239591677910000E-01   1.260791631970000E-01   1.282353969650000E-01
   1.304284885400000E-01   1.326590679550000E-01   1.349277760120000E-01
   1.372352644660000E-01   1.395821962160000E-01   1.419692454890000E-01
   1.443970980370000E-01   1.468664513360000E-01   1.493780147840000E-01
   1.519325099040000E-01   1.545306705530000E-01   1.571732431320000E-01
   1.598609868010000E-01   1.625946736970000E-01   1.653750891560000E-01
   1.682030319360000E-01   1.710793144520000E-01   1.740047630030000E-01
   1.769802180140000E-01   1.800065342760000E-01   1.830845811900000E-01
   1.862152430220000E-01   1.893994191480000E-01   1.926380243200000E-01
   1.959319889290000E-01   1.992822592650000E-01   2.026897977980000E-01
   2.061555834450000E-01   2.096806118620000E-01   2.132658957190000E-01
   2.169124650010000E-01   2.206213672950000E-01   2.243936680980000E-01
   2.282304511180000E-01   2.321328185900000E-01   2.361018915870000E-01
   2.401388103470000E-01   2.442447346000000E-01   2.484208438980000E-01
   2.526683379560000E-01   2.569884369970000E-01   2.613823821020000E-01
   2.658514355660000E-01   2.703968812620000E-01   2.750200250090000E-01
   2.797221949460000E-01   2.845047419150000E-01   2.893690398500000E-01
   2.943164861700000E-01   2.993485021800000E-01   3.044665334810000E-01
   3.096720503850000E-01   3.149665483340000E-01   3.203515483380000E-01
   3.258285974000000E-01   3.313992689730000E-01   3.370651634020000E-01
   3.428279083890000E-01   3.486891594580000E-01   3.546506004350000E-01
   3.607139439250000E-01   3.668809318100000E-01   3.731533357470000E-01
   3.795329576740000E-01   3.860216303350000E-01   3.926212178000000E-01
   3.993336160020000E-01   4.061607532830000E-01   4.131045909480000E-01
   4.201671238270000E-01   4.273503808490000E-01   4.346564256240000E-01
   4.420873570390000E-01   4.496453098550000E-01   4.573324553270000E-01
   4.651510018230000E-01   4.731031954590000E-01   4.811913207470000E-01
   4.894177012490000E-01   4.977847002450000E-01   5.062947214110000E-01
   5.149502095130000E-01   5.237536511040000E-01   5.327075752430001E-01
   5.418145542190000E-01   5.510772042910000E-01   5.604981864380000E-01
   5.700802071270000E-01   5.798260190880000E-01   5.897384221020000E-01
   5.998202638120000E-01   6.100744405350000E-01   6.205038980990000E-01
   6.311116326850000E-01   6.419006916880000E-01   6.528741745980000E-01
   6.640352338840000E-01   6.753870759020000E-01   6.869329618160001E-01
   6.986762085360000E-01   7.106201896700000E-01   7.227683364920000E-01
   7.351241389299999E-01   7.476911465670000E-01   7.604729696610000E-01
   7.734732801820000E-01   7.866958128680001E-01   8.001443662960001E-01
   8.138228039770000E-01   8.277350554600000E-01   8.418851174660000E-01
   8.562770550330000E-01   8.709150026880000E-01   8.858031656299999E-01
   9.009458209380000E-01   9.163473188060000E-01   9.320120837850000E-01
   9.479446160600000E-01   9.641494927380000E-01   9.806313691670000E-01
   9.973949802720000E-01   1.014445141910000E+00   1.031786752270000E+00
   1.049424793260000E+00   1.067364331940000E+00   1.085610521990000E+00
   1.104168605210000E+00   1.123043912950000E+00   1.142241867740000E+00
   1.161767984770000E+00   1.181627873520000E+00   1.201827239350000E+00
   1.222371885160000E+00   1.243267713000000E+00   1.264520725870000E+00
   1.286137029320000E+00   1.308122833320000E+00   1.330484453950000E+00
   1.353228315280000E+00   1.376360951180000E+00   1.399889007200000E+00
   1.423819242510000E+00   1.448158531790000E+00   1.472913867250000E+00
   1.498092360620000E+00   1.523701245200000E+00   1.549747877920000E+00
   1.576239741480000E+00   1.603184446470000E+00   1.630589733580000E+00
   1.658463475840000E+00   1.686813680810000E+00   1.715648492980000E+00
   1.744976196020000E+00   1.774805215200000E+00   1.805144119850000E+00
   1.836001625720000E+00   1.867386597600000E+00   1.899308051760000E+00
   1.931775158640000E+00   1.964797245400000E+00   1.998383798640000E+00
   2.032544467140000E+00   2.067289064590000E+00   2.102627572440000E+00
   2.138570142770000E+00   2.175127101170000E+00   2.212308949760000E+00
   2.250126370160000E+00   2.288590226580000E+00   2.327711568950000E+00
   2.367501636060000E+00   2.407971858850000E+00   2.449133863610000E+00
   2.490999475390000E+00   2.533580721380000E+00   2.576889834340000E+00
   2.620939256150000E+00   2.665741641350000E+00   2.711309860790000E+00
   2.757657005350000E+00   2.804796389670000E+00   2.852741555970000E+00
   2.901506277970000E+00   2.951104564840000E+00   3.001550665210000E+00
   3.052859071260000E+00   3.105044522900000E+00   3.158122012010000E+00
   3.212106786720000E+00   3.267014355810000E+00   3.322860493160000E+00
   3.379661242290000E+00   3.437432920960000E+00   3.496192125850000E+00
   3.555955737340000E+00   3.616740924360000E+00   3.678565149320000E+00
   3.741446173120000E+00   3.805402060270000E+00   3.870451184050000E+00
   3.936612231820000E+00   4.003904210360000E+00   4.072346451360000E+00
   4.141958616960000E+00   4.212760705370000E+00   4.284773056680000E+00
   4.358016358620000E+00   4.432511652600000E+00   4.508280339660000E+00
   4.585344186680000E+00   4.663725332610000E+00   4.743446294850000E+00
   4.824529975670000E+00   4.906999668850000E+00   4.990879066350000E+00
   5.076192265080000E+00   5.162963773880000E+00   5.251218520520000E+00
   5.340981858890000E+00   5.432279576250000E+00   5.525137900680000E+00
   5.619583508560000E+00   5.715643532310000E+00   5.813345568090000E+00
   5.912717683830000E+00   6.013788427190000E+00   6.116586833860000E+00
   6.221142435830000E+00   6.327485269890000E+00   6.435645886280000E+00
   6.545655357470000E+00   6.657545287030000E+00   6.771347818780000E+00
   6.887095645990000E+00   7.004822020760000E+00   7.124560763610000E+00
   7.246346273160000E+00   7.370213536040000E+00   7.496198136900000E+00
   7.624336268680000E+00   7.754664743000000E+00   7.887221000700000E+00
   8.022043122620000E+00   8.159169840560001E+00   8.298640548370001E+00
   8.440495313280000E+00   8.584774887420000E+00   8.731520719520001E+00
   8.880774966830000E+00   9.032580507180000E+00   9.186980951390000E+00
   9.344020655710001E+00   9.503744734610001E+00   9.666199073730001E+00
   9.831430343039999E+00   9.999486010309999E+00   1.017041435470000E+01
   1.034426448050000E+01   1.052108633170000E+01   1.070093070560000E+01
   1.088384926800000E+01   1.106989456810000E+01   1.125912005280000E+01
   1.145158008320000E+01   1.164732994920000E+01   1.184642588590000E+01
   1.204892508980000E+01   1.225488573500000E+01   1.246436699000000E+01
   1.267742903470000E+01   1.289413307770000E+01   1.311454137380000E+01
   1.333871724220000E+01   1.356672508420000E+01   1.379863040210000E+01
   1.403449981770000E+01   1.427440109170000E+01   1.451840314330000E+01
   1.476657606940000E+01   1.501899116530000E+01   1.527572094500000E+01
   1.553683916190000E+01   1.580242083040000E+01   1.607254224690000E+01
   1.634728101200000E+01   1.662671605280000E+01   1.691092764570000E+01
   1.719999743910000E+01   1.749400847720000E+01   1.779304522370000E+01
   1.809719358600000E+01   1.840654094010000E+01   1.872117615550000E+01
   1.904118962080000E+01   1.936667326960000E+01   1.969772060720000E+01
   2.003442673700000E+01   2.037688838820000E+01   2.072520394330000E+01
   2.107947346680000E+01   2.143979873340000E+01   2.180628325750000E+01
   2.217903232300000E+01   2.255815301370000E+01   2.294375424340000E+01
   2.333594678800000E+01   2.373484331680000E+01   2.414055842510000E+01
   2.455320866690000E+01   2.497291258870000E+01   2.539979076330000E+01
   2.583396582450000E+01   2.627556250250000E+01   2.672470765940000E+01
   2.718153032590000E+01   2.764616173830000E+01   2.811873537630000E+01
   2.859938700110000E+01   2.908825469460000E+01   2.958547889910000E+01
   3.009120245740000E+01   3.060557065420000E+01   3.112873125740000E+01
   3.166083456100000E+01   3.220203342790000E+01   3.275248333420000E+01
   3.331234241350000E+01   3.388177150230000E+01   3.446093418670000E+01
   3.504999684890000E+01   3.564912871520000E+01   3.625850190460000E+01
   3.687829147830000E+01   3.750867548970000E+01   3.814983503600000E+01
   3.880195430990000E+01   3.946522065270000E+01   4.013982460800000E+01
   4.082595997650000E+01   4.152382387140000E+01   4.223361677570000E+01
   4.295554259910000E+01   4.368980873690000E+01   4.443662612960000E+01
   4.519620932340000E+01   4.596877653180000E+01   4.675454969840000E+01
   4.755375456060000E+01   4.836662071460000E+01   4.919338168100000E+01
   5.003427497230000E+01   5.088954216090000E+01   5.175942894850000E+01
   5.264418523660000E+01   5.354406519870000E+01   5.445932735290000E+01
   5.539023463620000E+01   5.633705448040000E+01   5.730005888840000E+01
   5.827952451280000E+01   5.927573273510000E+01   6.028896974660000E+01
   6.131952663080000E+01   6.236769944660000E+01   6.343378931390000E+01
   6.451810249960000E+01   6.562095050590000E+01   6.674265015970001E+01
   6.788352370370001E+01   6.904389888870000E+01   7.022410906800000E+01
   7.142449329320000E+01   7.264539641150000E+01   7.388716916470000E+01
   7.515016829010000E+01   7.643475662279999E+01   7.774130320030000E+01
   7.907018336810000E+01   8.042177888780000E+01   8.179647804660000E+01
   8.319467576900000E+01   8.461677373009999E+01   8.606318047110000E+01
   8.753431151680000E+01   8.903058949450001E+01   9.055244425600000E+01
   9.210031300080000E+01   9.367464040150000E+01   9.527587873200000E+01
   9.690448799710001E+01   9.856093606460000E+01   1.002456988000000E+02
   1.019592602030000E+02   1.037021125470000E+02   1.054747565190000E+02
   1.072777013670000E+02   1.091114650400000E+02   1.109765743440000E+02
   1.128735650880000E+02   1.148029822420000E+02   1.167653800890000E+02
   1.187613223890000E+02   1.207913825360000E+02   1.228561437290000E+02
   1.249561991330000E+02   1.270921520530000E+02   1.292646161070000E+02
   1.314742154030000E+02   1.337215847140000E+02   1.360073696680000E+02
   1.383322269250000E+02   1.406968243720000E+02   1.431018413130000E+02
   1.455479686620000E+02   1.480359091440000E+02   1.505663774960000E+02
   1.531401006730000E+02   1.557578180560000E+02   1.584202816650000E+02
   1.611282563730000E+02   1.638825201290000E+02   1.666838641800000E+02
   1.695330932990000E+02   1.724310260120000E+02   1.753784948410000E+02
   1.783763465360000E+02   1.814254423220000E+02   1.845266581460000E+02
   1.876808849250000E+02   1.908890288090000E+02   1.941520114360000E+02
   1.974707701970000E+02   2.008462585070000E+02   2.042794460790000E+02
    </PP_R>
    <PP_RAB>
   1.077249968130000E-06   1.095664052910000E-06   1.114392900770000E-06
   1.133441892150000E-06   1.152816499450000E-06   1.172522288620000E-06
   1.192564920750000E-06   1.212950153720000E-06   1.233683843780000E-06
   1.254771947350000E-06   1.276220522610000E-06   1.298035731330000E-06
   1.320223840600000E-06   1.342791224640000E-06   1.365744366600000E-06
   1.389089860500000E-06   1.412834413030000E-06   1.436984845550000E-06
   1.461548096010000E-06   1.486531220960000E-06   1.511941397560000E-06
   1.537785925660000E-06   1.564072229910000E-06   1.590807861840000E-06
   1.618000502080000E-06   1.645657962560000E-06   1.673788188730000E-06
   1.702399261850000E-06   1.731499401340000E-06   1.761096967100000E-06
   1.791200461950000E-06   1.821818534020000E-06   1.852959979300000E-06
   1.884633744130000E-06   1.916848927770000E-06   1.949614785010000E-06
   1.982940728850000E-06   2.016836333190000E-06   2.051311335580000E-06
   2.086375640030000E-06   2.122039319820000E-06   2.158312620440000E-06
   2.195205962520000E-06   2.232729944790000E-06   2.270895347170000E-06
   2.309713133840000E-06   2.349194456390000E-06   2.389350657060000E-06
   2.430193271930000E-06   2.471734034300000E-06   2.513984878030000E-06
   2.556957940970000E-06   2.600665568450000E-06   2.645120316820000E-06
   2.690334957070000E-06   2.736322478490000E-06   2.783096092410000E-06
   2.830669235980000E-06   2.879055576050000E-06   2.928269013070000E-06
   2.978323685120000E-06   3.029233971930000E-06   3.081014499040000E-06
   3.133680142000000E-06   3.187246030620000E-06   3.241727553350000E-06
   3.297140361670000E-06   3.353500374620000E-06   3.410823783330000E-06
   3.469127055720000E-06   3.528426941170000E-06   3.588740475410000E-06
   3.650084985350000E-06   3.712478094060000E-06   3.775937725900000E-06
   3.840482111570000E-06   3.906129793440000E-06   3.972899630810000E-06
   4.040810805370000E-06   4.109882826670000E-06   4.180135537790000E-06
   4.251589120950000E-06   4.324264103400000E-06   4.398181363240000E-06
   4.473362135490000E-06   4.549828018110000E-06   4.627600978280000E-06
   4.706703358660000E-06   4.787157883830000E-06   4.868987666840000E-06
   4.952216215780000E-06   5.036867440600000E-06   5.122965659980000E-06
   5.210535608260000E-06   5.299602442590000E-06   5.390191750150000E-06
   5.482329555490000E-06   5.576042328030000E-06   5.671356989620000E-06
   5.768300922340000E-06   5.866901976290000E-06   5.967188477640000E-06
   6.069189236780000E-06   6.172933556540000E-06   6.278451240660000E-06
   6.385772602330000E-06   6.494928472890000E-06   6.605950210730000E-06
   6.718869710230000E-06   6.833719410980000E-06   6.950532307080000E-06
   7.069341956610000E-06   7.190182491290000E-06   7.313088626260000E-06
   7.438095670080000E-06   7.565239534850000E-06   7.694556746550000E-06
   7.826084455500000E-06   7.959860447080001E-06   8.095923152540000E-06
   8.234311660050001E-06   8.375065725960001E-06   8.518225786190001E-06
   8.663832967850001E-06   8.811929101070000E-06   8.962556731010000E-06
   9.115759130059999E-06   9.271580310310000E-06   9.430065036170000E-06
   9.591258837240000E-06   9.755208021370000E-06   9.921959687999999E-06
   1.009156174160000E-05   1.026406290570000E-05   1.043951273640000E-05
   1.061796163710000E-05   1.079946087270000E-05   1.098406258450000E-05
   1.117181980480000E-05   1.136278647290000E-05   1.155701744960000E-05
   1.175456853370000E-05   1.195549647800000E-05   1.215985900500000E-05
   1.236771482420000E-05   1.257912364860000E-05   1.279414621180000E-05
   1.301284428560000E-05   1.323528069780000E-05   1.346151934990000E-05
   1.369162523620000E-05   1.392566446130000E-05   1.416370426050000E-05
   1.440581301770000E-05   1.465206028630000E-05   1.490251680830000E-05
   1.515725453500000E-05   1.541634664760000E-05   1.567986757830000E-05
   1.594789303150000E-05   1.622050000580000E-05   1.649776681580000E-05
   1.677977311500000E-05   1.706659991840000E-05   1.735832962560000E-05
   1.765504604500000E-05   1.795683441750000E-05   1.826378144110000E-05
   1.857597529560000E-05   1.889350566840000E-05   1.921646377980000E-05
   1.954494240940000E-05   1.987903592270000E-05   2.021884029830000E-05
   2.056445315550000E-05   2.091597378220000E-05   2.127350316340000E-05
   2.163714401040000E-05   2.200700079010000E-05   2.238317975540000E-05
   2.276578897500000E-05   2.315493836530000E-05   2.355073972130000E-05
   2.395330674910000E-05   2.436275509840000E-05   2.477920239590000E-05
   2.520276827860000E-05   2.563357442900000E-05   2.607174460930000E-05
   2.651740469730000E-05   2.697068272260000E-05   2.743170890310000E-05
   2.790061568270000E-05   2.837753776930000E-05   2.886261217340000E-05
   2.935597824750000E-05   2.985777772600000E-05   3.036815476630000E-05
   3.088725598980000E-05   3.141523052430000E-05   3.195223004660000E-05
   3.249840882630000E-05   3.305392376990000E-05   3.361893446630000E-05
   3.419360323200000E-05   3.477809515810000E-05   3.537257815810000E-05
   3.597722301530000E-05   3.659220343240000E-05   3.721769608150000E-05
   3.785388065450000E-05   3.850093991490000E-05   3.915905975030000E-05
   3.982842922580000E-05   4.050924063830000E-05   4.120168957180000E-05
   4.190597495340000E-05   4.262229911070000E-05   4.335086782970000E-05
   4.409189041420000E-05   4.484557974560000E-05   4.561215234430000E-05
   4.639182843160000E-05   4.718483199360000E-05   4.799139084480000E-05
   4.881173669380000E-05   4.964610521030000E-05   5.049473609210000E-05
   5.135787313440000E-05   5.223576429990000E-05   5.312866178970000E-05
   5.403682211590000E-05   5.496050617540000E-05   5.589997932490000E-05
   5.685551145670000E-05   5.782737707670000E-05   5.881585538310000E-05
   5.982123034670000E-05   6.084379079220000E-05   6.188383048130000E-05
   6.294164819749999E-05   6.401754783119999E-05   6.511183846760000E-05
   6.622483447530000E-05   6.735685559640000E-05   6.850822703860000E-05
   6.967927956889999E-05   7.087034960770000E-05   7.208177932670001E-05
   7.331391674590000E-05   7.456711583480000E-05   7.584173661310001E-05
   7.713814525480000E-05   7.845671419290001E-05   7.979782222670000E-05
   8.116185463080000E-05   8.254920326509999E-05   8.396026668810001E-05
   8.539545027110001E-05   8.685516631440000E-05   8.833983416629999E-05
   8.984988034310000E-05   9.138573865190000E-05   9.294785031500000E-05
   9.453666409680000E-05   9.615263643290000E-05   9.779623156080000E-05
   9.946792165360000E-05   1.011681869550000E-04   1.028975159200000E-04
   1.046564053490000E-04   1.064453605390000E-04   1.082648954210000E-04
   1.101155327120000E-04   1.119978040650000E-04   1.139122502200000E-04
   1.158594211600000E-04   1.178398762690000E-04   1.198541844950000E-04
   1.219029245090000E-04   1.239866848740000E-04   1.261060642150000E-04
   1.282616713870000E-04   1.304541256560000E-04   1.326840568700000E-04