<UPF version="2.0.1">
  <PP_INFO>
    Generated by new atomic code, or converted to UPF format
    Author: 
    Generation date: 
    Pseudopotential type: US
    Element: Zn
    Functional: SLA  PZ   NOGX NOGC
    Suggested minimum cutoff for wavefunctions:   0. Ry
    Suggested minimum cutoff for charge density:   0. Ry
    The Pseudo was generated with a Non-Relativistic Calculation
    L component and cutoff radius for Local Potential:  0   0.0000
    Valence configuration: 
    nl pn  l   occ       Rcut    Rcut US       E pseu
    3S  1  0  2.00      0.000      0.000     0.000000
    3P  2  1  6.00      0.000      0.000     0.000000
    3D  3  2 10.00      0.000      0.000     0.000000
    4S  1  0  2.00      0.000      0.000     0.000000
    4P  2  1  0.00      0.000      0.000     0.000000
    Generation configuration: not available.
  </PP_INFO>
    <!-- END OF HUMAN READABLE SECTION -->
  <PP_HEADER generated="Generated by new atomic code, or converted to UPF format" author="" date="" comment="" element="Zn" pseudo_type="US" relativistic="no" is_ultrasoft="true" is_paw="false" is_coulomb="false" has_so="false" has_wfc="false" has_gipaw="false" paw_as_gipaw="false" core_correction="false" functional="SLA  PZ   NOGX NOGC" z_valence="20.000000000000000" total_psenergy="-461.10805480099998" wfc_cutoff="0.0000000000000000" rho_cutoff="0.0000000000000000" l_max="2" l_max_rho="0" l_local="0" mesh_size="943" number_of_wfc="5" number_of_proj="6"/>
  <PP_MESH>
    <PP_R>
   0.000000000000000E+00   5.108463195460000E-07   1.030278091120000E-06
   1.558439604650000E-06   2.095477575080000E-06   2.641541183070000E-06
   3.196782116470000E-06   3.761354612430000E-06   4.335415500300000E-06
   4.919124245100000E-06   5.512642991920000E-06   6.116136610890000E-06
   6.729772743010000E-06   7.353721846700000E-06   7.988157245170000E-06
   8.633255174560000E-06   9.289194832870000E-06   9.956158429799999E-06
   1.063433123730000E-05   1.132390164110000E-05   1.202506119280000E-05
   1.273800466370000E-05   1.346293009810000E-05   1.420003886880000E-05
   1.494953573310000E-05   1.571162888930000E-05   1.648653003490000E-05
   1.727445442510000E-05   1.807562093300000E-05   1.889025210990000E-05
   1.971857424740000E-05   2.056081744050000E-05   2.141721565100000E-05
   2.228800677270000E-05   2.317343269770000E-05   2.407373938340000E-05
   2.498917692060000E-05   2.591999960360000E-05   2.686646600010000E-05
   2.782883902360000E-05   2.880738600600000E-05   2.980237877230000E-05
   3.081409371580000E-05   3.184281187490000E-05   3.288881901120000E-05
   3.395240568910000E-05   3.503386735610000E-05   3.613350442510000E-05
   3.725162235800000E-05   3.838853175040000E-05   3.954454841750000E-05
   4.071999348280000E-05   4.191519346610000E-05   4.313048037530000E-05
   4.436619179770000E-05   4.562267099460000E-05   4.690026699600000E-05
   4.819933469790000E-05   4.952023496070000E-05   5.086333470980000E-05
   5.222900703710000E-05   5.361763130460000E-05   5.502959325040000E-05
   5.646528509510000E-05   5.792510565130000E-05   5.940946043410000E-05
   6.091876177380000E-05   6.245342893039999E-05   6.401388821030000E-05
   6.560057308450000E-05   6.721392430880000E-05   6.885439004680000E-05
   7.052242599400000E-05   7.221849550450000E-05   7.394306971950000E-05
   7.569662769850000E-05   7.747965655230000E-05   7.929265157810000E-05
   8.113611639720000E-05   8.301056309520000E-05   8.491651236369999E-05
   8.685449364530000E-05   8.882504528050000E-05   9.082871465760000E-05
   9.286605836429999E-05   9.493764234240000E-05   9.704404204520001E-05
   9.918584259739999E-05   1.013636389570000E-04   1.035780360820000E-04
   1.058296490970000E-04   1.081191034640000E-04   1.104470351570000E-04
   1.128140908400000E-04   1.152209280420000E-04   1.176682153460000E-04
   1.201566325690000E-04   1.226868709530000E-04   1.252596333600000E-04
   1.278756344620000E-04   1.305356009430000E-04   1.332402716990000E-04
   1.359903980450000E-04   1.387867439240000E-04   1.416300861150000E-04
   1.445212144540000E-04   1.474609320520000E-04   1.504500555140000E-04
   1.534894151740000E-04   1.565798553150000E-04   1.597222344150000E-04
   1.629174253760000E-04   1.661663157720000E-04   1.694698080940000E-04
   1.728288199990000E-04   1.762442845670000E-04   1.797171505620000E-04
   1.832483826900000E-04   1.868389618720000E-04   1.904898855140000E-04
   1.942021677840000E-04   1.979768398970000E-04   2.018149503970000E-04
   2.057175654500000E-04   2.096857691410000E-04   2.137206637740000E-04
   2.178233701790000E-04   2.219950280240000E-04   2.262367961280000E-04
   2.305498527890000E-04   2.349353961050000E-04   2.393946443110000E-04
   2.439288361160000E-04   2.485392310460000E-04   2.532271097960000E-04
   2.579937745860000E-04   2.628405495180000E-04   2.677687809520000E-04
   2.727798378710000E-04   2.778751122690000E-04   2.830560195310000E-04
   2.883239988330000E-04   2.936805135350000E-04   2.991270515930000E-04
   3.046651259690000E-04   3.102962750530000E-04   3.160220630890000E-04
   3.218440806100000E-04   3.277639448810000E-04   3.337833003470000E-04
   3.399038190900000E-04   3.461272012920000E-04   3.524551757120000E-04
   3.588895001610000E-04   3.654319619930000E-04   3.720843785990000E-04
   3.788485979170000E-04   3.857264989400000E-04   3.927199922390000E-04
   3.998310204980000E-04   4.070615590460000E-04   4.144136164150000E-04
   4.218892348880000E-04   4.294904910760000E-04   4.372194964860000E-04
   4.450783981150000E-04   4.530693790410000E-04   4.611946590320000E-04
   4.694564951640000E-04   4.778571824430000E-04   4.863990544480000E-04
   4.950844839770000E-04   5.039158837030000E-04   5.128957068510000E-04
   5.220264478740000E-04   5.313106431460000E-04   5.407508716720000E-04
   5.503497557980000E-04   5.601099619410000E-04   5.700342013340000E-04
   5.801252307730000E-04   5.903858533860000E-04   6.008189194130000E-04
   6.114273269940000E-04   6.222140229790001E-04   6.331820037390000E-04
   6.443343160080000E-04   6.556740577220000E-04   6.672043788810001E-04
   6.789284824270000E-04   6.908496251310000E-04   7.029711184980000E-04
   7.152963296870000E-04   7.278286824470000E-04   7.405716580690000E-04
   7.535287963480000E-04   7.667036965750000E-04   7.801000185280000E-04
   7.937214834930000E-04   8.075718752990000E-04   8.216550413650000E-04
   8.359748937730000E-04   8.505354103520000E-04   8.653406357830000E-04
   8.803946827250000E-04   8.957017329520000E-04   9.112660385230000E-04
   9.270919229560000E-04   9.431837824310000E-04   9.595460870130000E-04
   9.761833818920001E-04   9.931002886450001E-04   1.010301506520000E-03
   1.027791813750000E-03   1.045576068860000E-03   1.063659212040000E-03
   1.082046266490000E-03   1.100742339860000E-03   1.119752625610000E-03
   1.139082404510000E-03   1.158737046060000E-03   1.178722010000000E-03
   1.199042847860000E-03   1.219705204420000E-03   1.240714819380000E-03
   1.262077528870000E-03   1.283799267120000E-03   1.305886068070000E-03
   1.328344067090000E-03   1.351179502670000E-03   1.374398718120000E-03
   1.398008163380000E-03   1.422014396780000E-03   1.446424086860000E-03
   1.471244014270000E-03   1.496481073570000E-03   1.522142275230000E-03
   1.548234747520000E-03   1.574765738520000E-03   1.601742618120000E-03
   1.629172880080000E-03   1.657064144080000E-03   1.685424157870000E-03
   1.714260799430000E-03   1.743582079110000E-03   1.773396141910000E-03
   1.803711269700000E-03   1.834535883530000E-03   1.865878546020000E-03
   1.897747963640000E-03   1.930152989230000E-03   1.963102624380000E-03
   1.996606021990000E-03   2.030672488770000E-03   2.065311487840000E-03
   2.100532641370000E-03   2.136345733250000E-03   2.172760711780000E-03
   2.209787692470000E-03   2.247436960840000E-03   2.285718975240000E-03
   2.324644369830000E-03   2.364223957460000E-03   2.404468732710000E-03
   2.445389874960000E-03   2.486998751440000E-03   2.529306920450000E-03
   2.572326134520000E-03   2.616068343720000E-03   2.660545698930000E-03
   2.705770555280000E-03   2.751755475500000E-03   2.798513233480000E-03
   2.846056817790000E-03   2.894399435290000E-03   2.943554514790000E-03
   2.993535710800000E-03   3.044356907290000E-03   3.096032221610000E-03
   3.148576008330000E-03   3.202002863300000E-03   3.256327627630000E-03
   3.311565391910000E-03   3.367731500300000E-03   3.424841554870000E-03
   3.482911419880000E-03   3.541957226230000E-03   3.601995375900000E-03
   3.663042546560000E-03   3.725115696140000E-03   3.788232067570000E-03
   3.852409193600000E-03   3.917664901610000E-03   3.984017318610000E-03
   4.051484876250000E-03   4.120086315950000E-03   4.189840694120000E-03
   4.260767387410000E-03   4.332886098140000E-03   4.406216859750000E-03
   4.480780042370000E-03   4.556596358470000E-03   4.633686868630000E-03
   4.712072987370000E-03   4.791776489110000E-03   4.872819514250000E-03
   4.955224575240000E-03   5.039014562910000E-03   5.124212752790000E-03
   5.210842811600000E-03   5.298928803800000E-03   5.388495198290000E-03
   5.479566875200000E-03   5.572169132800000E-03   5.666327694530000E-03
   5.762068716160000E-03   5.859418793030000E-03   5.958404967460000E-03
   6.059054736240000E-03   6.161396058280000E-03   6.265457362400000E-03
   6.371267555170000E-03   6.478856029000000E-03   6.588252670270000E-03
   6.699487867640000E-03   6.812592520480000E-03   6.927598047480000E-03
   7.044536395370000E-03   7.163440047770000E-03   7.284342034240000E-03
   7.407275939430000E-03   7.532275912450000E-03   7.659376676310000E-03
   7.788613537610000E-03   7.920022396290000E-03   8.053639755670000E-03
   8.189502732540000E-03   8.327649067480000E-03   8.468117135370001E-03
   8.610945956010000E-03   8.756175205010000E-03   8.903845224740000E-03
   9.053997035619999E-03   9.206672347430001E-03   9.361913570980001E-03
   9.519763829820000E-03   9.680266972260000E-03   9.843467583550000E-03
   1.000941099820000E-02   1.017814331270000E-02   1.034971139830000E-02
   1.052416291380000E-02   1.070154631910000E-02   1.088191088850000E-02
   1.106530672440000E-02   1.125178477140000E-02   1.144139683000000E-02
   1.163419557150000E-02   1.183023455240000E-02   1.202956822910000E-02
   1.223225197350000E-02   1.243834208790000E-02   1.264789582080000E-02
   1.286097138300000E-02   1.307762796340000E-02   1.329792574600000E-02
   1.352192592580000E-02   1.374969072670000E-02   1.398128341810000E-02
   1.421676833280000E-02   1.445621088470000E-02   1.469967758730000E-02
   1.494723607170000E-02   1.519895510580000E-02   1.545490461320000E-02
   1.571515569250000E-02   1.597978063750000E-02   1.624885295670000E-02
   1.652244739420000E-02   1.680063995020000E-02   1.708350790220000E-02
   1.737112982650000E-02   1.766358561990000E-02   1.796095652190000E-02
   1.826332513760000E-02   1.857077546010000E-02   1.888339289440000E-02
   1.920126428050000E-02   1.952447791810000E-02   1.985312359100000E-02
   2.018729259160000E-02   2.052707774680000E-02   2.087257344360000E-02
   2.122387565520000E-02   2.158108196790000E-02   2.194429160780000E-02
   2.231360546900000E-02   2.268912614090000E-02   2.307095793740000E-02
   2.345920692510000E-02   2.385398095360000E-02   2.425538968490000E-02
   2.466354462390000E-02   2.507855914960000E-02   2.550054854660000E-02
   2.592963003690000E-02   2.636592281240000E-02   2.680954806840000E-02
   2.726062903710000E-02   2.771929102150000E-02   2.818566143080000E-02
   2.865986981530000E-02   2.914204790260000E-02   2.963232963410000E-02
   3.013085120230000E-02   3.063775108880000E-02   3.115317010220000E-02
   3.167725141780000E-02   3.221014061720000E-02   3.275198572850000E-02
   3.330293726780000E-02   3.386314828070000E-02   3.443277438490000E-02
   3.501197381370000E-02   3.560090745940000E-02   3.619973891850000E-02
   3.680863453700000E-02   3.742776345640000E-02   3.805729766100000E-02
   3.869741202540000E-02   3.934828436330000E-02   4.001009547680000E-02
   4.068302920650000E-02   4.136727248280000E-02   4.206301537760000E-02
   4.277045115740000E-02   4.348977633660000E-02   4.422119073250000E-02
   4.496489752030000E-02   4.572110329020000E-02   4.649001810400000E-02
   4.727185555430000E-02   4.806683282300000E-02   4.887517074240000E-02
   4.969709385590000E-02   5.053283048080000E-02   5.138261277150000E-02
   5.224667678420000E-02   5.312526254210000E-02   5.401861410260000E-02
   5.492697962450000E-02   5.585061143750000E-02   5.678976611190000E-02
   5.774470453010000E-02   5.871569195880000E-02   5.970299812300000E-02
   6.070689728080000E-02   6.172766829960000E-02   6.276559473330000E-02
   6.382096490160000E-02   6.489407196960000E-02   6.598521402960000E-02
   6.709469418350000E-02   6.822282062740000E-02   6.936990673710000E-02
   7.053627115489999E-02   7.172223787850000E-02   7.292813635060000E-02
   7.415430155090000E-02   7.540107408860000E-02   7.666880029760000E-02
   7.795783233200000E-02   7.926852826470000E-02   8.060125218630000E-02
   8.195637430640000E-02   8.333427105660000E-02   8.473532519470001E-02
   8.615992591170001E-02   8.760846893889999E-02   8.908135665890000E-02
   9.057899821640000E-02   9.210180963290000E-02   9.365021392099999E-02
   9.522464120330000E-02   9.682552883050000E-02   9.845332150420000E-02
   1.001084713990000E-01   1.017914382900000E-01   1.035026896790000E-01
   1.052427009240000E-01   1.070119553730000E-01   1.088109444970000E-01
   1.106401680260000E-01   1.125001340900000E-01   1.143913593580000E-01
   1.163143691830000E-01   1.182696977470000E-01   1.202578882080000E-01
   1.222794928550000E-01   1.243350732580000E-01   1.264252004240000E-01
   1.285504549580000E-01   1.307114272210000E-01   1.329087174990000E-01
   1.351429361630000E-01   1.374147038430000E-01   1.397246516030000E-01
   1.420734211070000E-01   1.444616648070000E-01   1.468900461210000E-01
   1.493592396120000E-01   1.518699311860000E-01   1.544228182710000E-01
   1.570186100210000E-01   1.596580275040000E-01   1.623418039090000E-01
   1.650706847480000E-01   1.678454280590000E-01   1.706668046230000E-01
   1.735355981740000E-01   1.764526056170000E-01   1.794186372510000E-01
   1.824345169920000E-01   1.855010826050000E-01   1.886191859320000E-01
   1.917896931350000E-01   1.950134849280000E-01   1.982914568320000E-01
   2.016245194150000E-01   2.050135985480000E-01   2.084596356660000E-01
   2.119635880210000E-01   2.155264289580000E-01   2.191491481760000E-01
   2.228327520100000E-01   2.265782637080000E-01   2.303867237120000E-01
   2.342591899540000E-01   2.381967381430000E-01   2.422004620670000E-01
   2.462714738990000E-01   2.504109045000000E-01   2.546199037400000E-01
   2.588996408110000E-01   2.632513045580000E-01   2.676761038030000E-01
   2.721752676870000E-01   2.767500460050000E-01   2.814017095590000E-01
   2.861315505070000E-01   2.909408827250000E-01   2.958310421690000E-01
   3.008033872490000E-01   3.058592992030000E-01   3.110001824830000E-01
   3.162274651460000E-01   3.215425992490000E-01   3.269470612520000E-01
   3.324423524280000E-01   3.380299992840000E-01   3.437115539790000E-01
   3.494885947590000E-01   3.553627263950000E-01   3.613355806280000E-01
   3.674088166230000E-01   3.735841214280000E-01   3.798632104460000E-01
   3.862478279090000E-01   3.927397473620000E-01   3.993407721580000E-01
   4.060527359580000E-01   4.128775032390000E-01   4.198169698140000E-01
   4.268730633570000E-01   4.340477439390000E-01   4.413430045730000E-01
   4.487608717680000E-01   4.563034060900000E-01   4.639727027350000E-01
   4.717708921140000E-01   4.797001404390000E-01   4.877626503320000E-01
   4.959606614300000E-01   5.042964510110000E-01   5.127723346260000E-01
   5.213906667410000E-01   5.301538413930000E-01   5.390642928529999E-01
   5.481244963040000E-01   5.573369685280000E-01   5.667042686040000E-01
   5.762289986200000E-01   5.859138043950000E-01   5.957613762160000E-01
   6.057744495830000E-01   6.159558059680000E-01   6.263082735930000E-01
   6.368347282090000E-01   6.475380938990000E-01   6.584213438890000E-01
   6.694875013740000E-01   6.807396403580001E-01   6.921808865070000E-01
   7.038144180190000E-01   7.156434665050000E-01   7.276713178890000E-01
   7.399013133160000E-01   7.523368500870000E-01   7.649813825980000E-01
   7.778384232990000E-01   7.909115436750001E-01   8.042043752300000E-01
   8.177206105050000E-01   8.314640040950000E-01   8.454383736980000E-01
   8.596476011740000E-01   8.740956336220000E-01   8.887864844759999E-01
   9.037242346230000E-01   9.189130335350000E-01   9.343571004190000E-01
   9.500607253930000E-01   9.660282706780000E-01   9.822641718030000E-01
   9.987729388480000E-01   1.015559157690000E+00   1.032627491260000E+00
   1.049982680890000E+00   1.067629547570000E+00   1.085572993330000E+00
   1.103818002560000E+00   1.122369643440000E+00   1.141233069330000E+00
   1.160413520190000E+00   1.179916324040000E+00   1.199746898460000E+00
   1.219910752060000E+00   1.240413486040000E+00   1.261260795750000E+00
   1.282458472240000E+00   1.304012403870000E+00   1.325928578010000E+00
   1.348213082600000E+00   1.370872107950000E+00   1.393911948360000E+00
   1.417339003940000E+00   1.441159782350000E+00   1.465380900640000E+00
   1.490009087040000E+00   1.515051182890000E+00   1.540514144460000E+00
   1.566405044990000E+00   1.592731076540000E+00   1.619499552070000E+00
   1.646717907450000E+00   1.674393703500000E+00   1.702534628130000E+00
   1.731148498430000E+00   1.760243262890000E+00   1.789827003570000E+00
   1.819907938370000E+00   1.850494423300000E+00   1.881594954810000E+00
   1.913218172120000E+00   1.945372859660000E+00   1.978067949510000E+00
   2.011312523850000E+00   2.045115817480000E+00   2.079487220430000E+00
   2.114436280540000E+00   2.149972706100000E+00   2.186106368560000E+00
   2.222847305300000E+00   2.260205722360000E+00   2.298191997310000E+00
   2.336816682160000E+00   2.376090506220000E+00   2.416024379140000E+00
   2.456629393920000E+00   2.497916830000000E+00   2.539898156370000E+00
   2.582585034780000E+00   2.625989322970000E+00   2.670123077970000E+00
   2.714998559430000E+00   2.760628233070000E+00   2.807024774070000E+00
   2.854201070670000E+00   2.902170227700000E+00   2.950945570230000E+00
   3.000540647290000E+00   3.050969235590000E+00   3.102245343410000E+00
   3.154383214430000E+00   3.207397331740000E+00   3.261302421830000E+00
   3.316113458670000E+00   3.371845667900000E+00   3.428514531050000E+00
   3.486135789840000E+00   3.544725450540000E+00   3.604299788440000E+00
   3.664875352340000E+00   3.726468969180000E+00   3.789097748700000E+00
   3.852779088170000E+00   3.917530677280000E+00   3.983370502990000E+00
   4.050316854560000E+00   4.118388328630000E+00   4.187603834390000E+00
   4.257982598800000E+00   4.329544171980000E+00   4.402308432610000E+00
   4.476295593430000E+00   4.551526206930000E+00   4.628021170970000E+00
   4.705801734650000E+00   4.784889504180000E+00   4.865306448900000E+00
   4.947074907350000E+00   5.030217593540000E+00   5.114757603180000E+00
   5.200718420150000E+00   5.288123923010000E+00   5.376998391630000E+00
   5.467366513930000E+00   5.559253392750000E+00   5.652684552820000E+00
   5.747685947830000E+00   5.844283967670000E+00   5.942505445750000E+00
   6.042377666440000E+00   6.143928372670000E+00   6.247185773610000E+00
   6.352178552560000E+00   6.458935874830000E+00   6.567487395930000E+00
   6.677863269760000E+00   6.790094156990000E+00   6.904211233600000E+00
   7.020246199490000E+00   7.138231287360000E+00   7.258199271590000E+00
   7.380183477410000E+00   7.504217790090000E+00   7.630336664400000E+00
   7.758575134190000E+00   7.888968822070000E+00   8.021553949339999E+00
   8.156367346080000E+00   8.293446461289999E+00   8.432829373410000E+00
   8.574554800790001E+00   8.718662112540001E+00   8.865191339370000E+00
   9.014183184809999E+00   9.165679036420000E+00   9.319720977370000E+00
   9.476351798070000E+00   9.635615008089999E+00   9.797554848230000E+00
   9.962216302840000E+00   1.012964511220000E+01   1.029988778550000E+01
   1.047299161350000E+01   1.064900468150000E+01   1.082797588330000E+01
   1.100995493430000E+01   1.119499238530000E+01   1.138313963680000E+01
   1.157444895320000E+01   1.176897347720000E+01   1.196676724460000E+01
   1.216788519940000E+01   1.237238320910000E+01   1.258031807980000E+01
   1.279174757260000E+01   1.300673041940000E+01   1.322532633890000E+01
   1.344759605370000E+01   1.367360130670000E+01   1.390340487870000E+01
   1.413707060540000E+01   1.437466339560000E+01   1.461624924860000E+01
   1.486189527340000E+01   1.511166970630000E+01   1.536564193090000E+01
   1.562388249670000E+01   1.588646313870000E+01   1.615345679770000E+01
   1.642493764040000E+01   1.670098107980000E+01   1.698166379640000E+01
   1.726706375950000E+01   1.755726024870000E+01   1.785233387600000E+01
   1.815236660810000E+01   1.845744178950000E+01   1.876764416510000E+01
   1.908305990440000E+01   1.940377662480000E+01   1.972988341630000E+01
   2.006147086630000E+01   2.039863108460000E+01   2.074145772890000E+01
   2.109004603100000E+01   2.144449282330000E+01   2.180489656550000E+01
   2.217135737210000E+01   2.254397704000000E+01   2.292285907720000E+01
   2.330810873110000E+01   2.369983301800000E+01   2.409814075260000E+01
   2.450314257870000E+01   2.491495099920000E+01   2.533368040810000E+01
   2.575944712180000E+01   2.619236941150000E+01   2.663256753630000E+01
   2.708016377620000E+01   2.753528246640000E+01   2.799805003160000E+01
   2.846859502150000E+01   2.894704814590000E+01   2.943354231160000E+01
   2.992821265890000E+01   3.043119659960000E+01   3.094263385460000E+01
   3.146266649300000E+01   3.199143897170000E+01   3.252909817550000E+01
   3.307579345740000E+01   3.363167668090000E+01   3.419690226150000E+01
   3.477162720990000E+01   3.535601117570000E+01   3.595021649160000E+01
   3.655440821820000E+01   3.716875419070000E+01   3.779342506450000E+01
   3.842859436340000E+01   3.907443852740000E+01   3.973113696180000E+01
   4.039887208700000E+01   4.107782938940000E+01   4.176819747250000E+01
   4.247016810970000E+01   4.318393629740000E+01   4.390970030900000E+01
   4.464766175040000E+01   4.539802561560000E+01   4.616100034380000E+01
   4.693679787740000E+01   4.772563372070000E+01   4.852772699970000E+01
   4.934330052340000E+01   5.017258084520000E+01   5.101579832610000E+01
   5.187318719850000E+01   5.274498563160000E+01   5.363143579720000E+01
   5.453278393710000E+01   5.544928043170000E+01   5.638117986920000E+01
   5.732874111650000E+01   5.829222739110000E+01   5.927190633450000E+01
   6.026805008580000E+01   6.128093535810000E+01   6.231084351500000E+01
   6.335806064860000E+01   6.442287765930000E+01   6.550559033650001E+01
   6.660649944070001E+01   6.772591078710001E+01   6.886413533030000E+01
   7.002148925130000E+01   7.119829404460000E+01   7.239487660810001E+01
   7.361156933350000E+01   7.484871019880001E+01   7.610664286230001E+01
   7.738571675759999E+01   7.868628719150000E+01   8.000871544170001E+01
   8.135336885810000E+01   8.272062096400001E+01   8.411085156050000E+01
   8.552444683180001E+01   8.696179945220000E+01   8.842330869560000E+01
   8.990938054620000E+01   9.142042781130000E+01   9.295687023600000E+01
   9.451913461980000E+01   9.610765493480000E+01   9.772287244720000E+01
   9.936523583870000E+01   1.010352013320000E+02   1.027332328170000E+02
   1.044598019800000E+02   1.062153884350000E+02   1.080004798560000E+02
   1.098155721130000E+02   1.116611694110000E+02   1.135377844260000E+02
   1.154459384530000E+02   1.173861615470000E+02   1.193589926720000E+02
   1.213649798480000E+02   1.234046803080000E+02   1.254786606470000E+02
   1.275874969850000E+02   1.297317751240000E+02   1.319120907090000E+02
   1.341290493980000E+02   1.363832670270000E+02   1.386753697830000E+02
   1.410059943750000E+02   1.433757882140000E+02   1.457854095910000E+02
   1.482355278610000E+02   1.507268236280000E+02   1.532599889340000E+02
   1.558357274540000E+02   1.584547546870000E+02   1.611177981560000E+02
   1.638255976140000E+02   1.665789052440000E+02   1.693784858720000E+02
   1.722251171760000E+02   1.751195899070000E+02   1.780627081030000E+02
   1.810552893160000E+02   1.840981648370000E+02   1.871921799300000E+02
   1.903381940620000E+02   1.935370811480000E+02   1.967897297860000E+02
   2.000970435130000E+02
    </PP_R>
    <PP_RAB>
   5.066010919750000E-07   5.151151973000000E-07   5.237723934930001E-07
   5.325750853860000E-07   5.415257182260000E-07   5.506267783590000E-07
   5.598807939160000E-07   5.692903355150000E-07   5.788580169800000E-07
   5.885864960600000E-07   5.984784751730000E-07   6.085367021560000E-07
   6.187639710250000E-07   6.291631227530000E-07   6.397370460610000E-07
   6.504886782170000E-07   6.614210058560000E-07   6.725370658050000E-07
   6.838399459300000E-07   6.953327859919999E-07   7.070187785220000E-07
   7.189011697030000E-07   7.309832602760000E-07   7.432684064550001E-07
   7.557600208600000E-07   7.684615734630000E-07   7.813765925560000E-07
   7.945086657270000E-07   8.078614408580000E-07   8.214386271390000E-07
   8.352439960990000E-07   8.492813826500000E-07   8.635546861580001E-07
   8.780678715200000E-07   8.928249702700000E-07   9.078300816980000E-07
   9.230873739860000E-07   9.386010853680000E-07   9.543755253100000E-07
   9.704150757010000E-07   9.867241920750000E-07   1.003307404850000E-06
   1.020169320570000E-06   1.037314623220000E-06   1.054748075500000E-06
   1.072474520130000E-06   1.090498881240000E-06   1.108826165730000E-06
   1.127461464610000E-06   1.146409954480000E-06   1.165676898930000E-06
   1.185267650020000E-06   1.205187649740000E-06   1.225442431560000E-06
   1.246037621940000E-06   1.266978941880000E-06   1.288272208570000E-06
   1.309923336940000E-06   1.331938341320000E-06   1.354323337140000E-06
   1.377084542590000E-06   1.400228280390000E-06   1.423760979480000E-06
   1.447689176890000E-06   1.472019519500000E-06   1.496758765880000E-06
   1.521913788200000E-06   1.547491574150000E-06   1.573499228810000E-06
   1.599943976720000E-06   1.626833163790000E-06   1.654174259420000E-06
   1.681974858540000E-06   1.710242683720000E-06   1.738985587300000E-06
   1.768211553620000E-06   1.797928701180000E-06   1.828145284940000E-06
   1.858869698600000E-06   1.890110476890000E-06   1.921876298040000E-06
   1.954175986060000E-06   1.987018513320000E-06   2.020413002940000E-06
   2.054368731380000E-06   2.088895131010000E-06   2.124001792730000E-06
   2.159698468600000E-06   2.195995074600000E-06   2.232901693350000E-06
   2.270428576920000E-06   2.308586149710000E-06   2.347385011260000E-06
   2.386835939310000E-06   2.426949892680000E-06   2.467738014410000E-06
   2.509211634780000E-06   2.551382274530000E-06   2.594261647980000E-06
   2.637861666340000E-06   2.682194441020000E-06   2.727272286950000E-06
   2.773107726060000E-06   2.819713490700000E-06   2.867102527220000E-06
   2.915287999550000E-06   2.964283292840000E-06   3.014102017210000E-06
   3.064758011530000E-06   3.116265347230000E-06   3.168638332230000E-06
   3.221891514910000E-06   3.276039688180000E-06   3.331097893540000E-06
   3.387081425290000E-06   3.444005834760000E-06   3.501886934680000E-06
   3.560740803480000E-06   3.620583789840000E-06   3.681432517200000E-06
   3.743303888380000E-06   3.806215090270000E-06   3.870183598590000E-06
   3.935227182810000E-06   4.001363910990000E-06   4.068612154870000E-06
   4.136990594960000E-06   4.206518225700000E-06   4.277214360780000E-06
   4.349098638460000E-06   4.422191027060000E-06   4.496511830490000E-06
   4.572081693900000E-06   4.648921609400000E-06   4.727052921910000E-06
   4.806497335070000E-06   4.887276917280000E-06   4.969414107840000E-06
   5.052931723160000E-06   5.137852963120000E-06   5.224201417500000E-06
   5.312001072520000E-06   5.401276317560000E-06   5.492051951860000E-06
   5.584353191460000E-06   5.678205676190000E-06   5.773635476790000E-06
   5.870669102140000E-06   5.969333506660000E-06   6.069656097760000E-06
   6.171664743470000E-06   6.275387780180000E-06   6.380854020520000E-06
   6.488092761330000E-06   6.597133791850000E-06   6.708007401960000E-06
   6.820744390590000E-06   6.935376074300000E-06   7.051934295960000E-06
   7.170451433600000E-06   7.290960409410000E-06   7.413494698890000E-06
   7.538088340110000E-06   7.664775943240000E-06   7.793592700079999E-06
   7.924574393890000E-06   8.057757409320000E-06   8.193178742519999E-06
   8.330876011380001E-06   8.470887466030001E-06   8.613251999449999E-06
   8.758009158249999E-06   8.905199153689999E-06   9.054862872819999E-06
   9.207041889869999E-06   9.361778477750000E-06   9.519115619849999E-06
   9.679097021940000E-06   9.841767124330001E-06   1.000717111420000E-05
   1.017535493820000E-05   1.034636531510000E-05   1.052024974890000E-05
   1.069705654190000E-05   1.087683480830000E-05   1.105963448760000E-05
   1.124550635880000E-05   1.143450205400000E-05   1.162667407330000E-05
   1.182207579910000E-05   1.202076151080000E-05   1.222278640030000E-05
   1.242820658680000E-05   1.263707913280000E-05   1.284946205980000E-05
   1.306541436440000E-05   1.328499603490000E-05   1.350826806740000E-05
   1.373529248350000E-05   1.396613234700000E-05   1.420085178140000E-05
   1.443951598820000E-05   1.468219126450000E-05   1.492894502170000E-05
   1.517984580410000E-05   1.543496330780000E-05   1.569436840070000E-05
   1.595813314120000E-05   1.622633079920000E-05   1.649903587550000E-05
   1.677632412350000E-05   1.705827256940000E-05   1.734495953400000E-05
   1.763646465450000E-05   1.793286890630000E-05   1.823425462590000E-05
   1.854070553350000E-05   1.885230675630000E-05   1.916914485220000E-05
   1.949130783380000E-05   1.981888519290000E-05   2.015196792540000E-05
   2.049064855620000E-05   2.083502116570000E-05   2.118518141500000E-05