<UPF version="2.0.1">
  <PP_INFO>
    Generated by new atomic code, or converted to UPF format
    Author: 
    Generation date: 
    Pseudopotential type: US
    Element: Zr
    Functional: SLA  PZ   NOGX NOGC
    Suggested minimum cutoff for wavefunctions:   0. Ry
    Suggested minimum cutoff for charge density:   0. Ry
    The Pseudo was generated with a Non-Relativistic Calculation
    L component and cutoff radius for Local Potential:  0   0.0000
    Valence configuration: 
    nl pn  l   occ       Rcut    Rcut US       E pseu
    4S  1  0  2.00      0.000      0.000     0.000000
    4P  2  1  6.00      0.000      0.000     0.000000
    4D  3  2  2.00      0.000      0.000     0.000000
    5S  1  0  2.00      0.000      0.000     0.000000
    5P  2  1  0.00      0.000      0.000     0.000000
    Generation configuration: not available.
  </PP_INFO>
    <!-- END OF HUMAN READABLE SECTION -->
  <PP_HEADER generated="Generated by new atomic code, or converted to UPF format" author="" date="" comment="" element="Zr" pseudo_type="US" relativistic="no" is_ultrasoft="true" is_paw="false" is_coulomb="false" has_so="false" has_wfc="false" has_gipaw="false" paw_as_gipaw="false" core_correction="true" functional="SLA  PZ   NOGX NOGC" z_valence="12.000000000000000" total_psenergy="-98.701351038900000" wfc_cutoff="0.0000000000000000" rho_cutoff="0.0000000000000000" l_max="2" l_max_rho="0" l_local="0" mesh_size="887" number_of_wfc="5" number_of_proj="6"/>
  <PP_MESH>
    <PP_R>
   0.000000000000000E+00   1.059270227000000E-06   2.136647200200000E-06
   3.232440429150000E-06   4.346964714050000E-06   5.480540236150000E-06
   6.633492649770000E-06   7.806153175820001E-06   8.998858696990000E-06
   1.021195185450000E-05   1.144578114650000E-05   1.270070102830000E-05
   1.397707201410000E-05   1.527526078060000E-05   1.659564027230000E-05
   1.793858980860000E-05   1.930449519310000E-05   2.069374882380000E-05
   2.210674980650000E-05   2.354390406890000E-05   2.500562447780000E-05
   2.649233095700000E-05   2.800445060870000E-05   2.954241783550000E-05
   3.110667446550000E-05   3.269766987960000E-05   3.431586113990000E-05
   3.596171312140000E-05   3.763569864560000E-05   3.933829861600000E-05
   4.107000215680000E-05   4.283130675280000E-05   4.462271839280000E-05
   4.644475171470000E-05   4.829793015330000E-05   5.018278609100000E-05
   5.209986101050000E-05   5.404970565020000E-05   5.603288016280000E-05
   5.804995427590000E-05   6.010150745590000E-05   6.218812907439999E-05
   6.431041857730000E-05   6.646898565740001E-05   6.866445042920001E-05
   7.089744360730000E-05   7.316860668729999E-05   7.547859213050000E-05
   7.782806355099999E-05   8.021769590650000E-05   8.264817569220000E-05
   8.512020113770000E-05   8.763448240820000E-05   9.019174180810000E-05
   9.279271398850000E-05   9.543814615840000E-05   9.812879829920000E-05
   1.008654433830000E-04   1.036488675960000E-04   1.064798705600000E-04
   1.093592655700000E-04   1.122878798190000E-04   1.152665546410000E-04
   1.182961457520000E-04   1.213775234950000E-04   1.245115730900000E-04
   1.276991948880000E-04   1.309413046330000E-04   1.342388337200000E-04
   1.375927294640000E-04   1.410039553740000E-04   1.444734914320000E-04
   1.480023343650000E-04   1.515914979440000E-04   1.552420132650000E-04
   1.589549290510000E-04   1.627313119510000E-04   1.665722468460000E-04
   1.704788371620000E-04   1.744522051880000E-04   1.784934923950000E-04
   1.826038597660000E-04   1.867844881310000E-04   1.910365785040000E-04
   1.953613524270000E-04   1.997600523250000E-04   2.042339418590000E-04
   2.087843062900000E-04   2.134124528510000E-04   2.181197111180000E-04
   2.229074333960000E-04   2.277769951040000E-04   2.327297951740000E-04
   2.377672564480000E-04   2.428908260930000E-04   2.481019760100000E-04
   2.534022032630000E-04   2.587930305030000E-04   2.642760064120000E-04
   2.698527061410000E-04   2.755247317690000E-04   2.812937127600000E-04
   2.871613064290000E-04   2.931291984230000E-04   2.991991032020000E-04
   3.053727645320000E-04   3.116519559870000E-04   3.180384814550000E-04
   3.245341756640000E-04   3.311409047000000E-04   3.378605665480000E-04
   3.446950916370000E-04   3.516464433950000E-04   3.587166188090000E-04
   3.659076490050000E-04   3.732215998260000E-04   3.806605724290000E-04
   3.882267038860000E-04   3.959221678020000E-04   4.037491749330000E-04
   4.117099738280000E-04   4.198068514690000E-04   4.280421339340000E-04
   4.364181870590000E-04   4.449374171230000E-04   4.536022715350000E-04
   4.624152395400000E-04   4.713788529340000E-04   4.804956867890000E-04
   4.897683601960000E-04   4.991995370130000E-04   5.087919266350000E-04
   5.185482847710000E-04   5.284714142330000E-04   5.385641657450000E-04
   5.488294387580000E-04   5.592701822870000E-04   5.698893957550000E-04
   5.806901298570000E-04   5.916754874350000E-04   6.028486243690000E-04
   6.142127504860000E-04   6.257711304790000E-04   6.375270848470000E-04
   6.494839908480000E-04   6.616452834700000E-04   6.740144564160000E-04
   6.865950631120000E-04   6.993907177220000E-04   7.124050961890000E-04
   7.256419372930000E-04   7.391050437220000E-04   7.527982831670000E-04
   7.667255894290000E-04   7.808909635550000E-04   7.952984749810000E-04
   8.099522627090000E-04   8.248565364870000E-04   8.400155780240000E-04
   8.554337422200000E-04   8.711154584150000E-04   8.870652316630000E-04
   9.032876440250000E-04   9.197873558870000E-04   9.365691072950000E-04
   9.536377193220000E-04   9.709980954510000E-04   9.886552229820000E-04
   1.006614174470000E-03   1.024880109160000E-03   1.043458274520000E-03
   1.062354007680000E-03   1.081572737030000E-03   1.101119983740000E-03
   1.121001363360000E-03   1.141222587400000E-03   1.161789465060000E-03
   1.182707904780000E-03   1.203983916040000E-03   1.225623611010000E-03
   1.247633206370000E-03   1.270019025050000E-03   1.292787498050000E-03
   1.315945166330000E-03   1.339498682620000E-03   1.363454813400000E-03
   1.387820440810000E-03   1.412602564610000E-03   1.437808304230000E-03
   1.463444900800000E-03   1.489519719200000E-03   1.516040250230000E-03
   1.543014112730000E-03   1.570449055760000E-03   1.598352960860000E-03
   1.626733844270000E-03   1.655599859270000E-03   1.684959298520000E-03
   1.714820596400000E-03   1.745192331490000E-03   1.776083229010000E-03
   1.807502163320000E-03   1.839458160450000E-03   1.871960400760000E-03
   1.905018221500000E-03   1.938641119560000E-03   1.972838754130000E-03
   2.007620949540000E-03   2.042997698030000E-03   2.078979162670000E-03
   2.115575680230000E-03   2.152797764190000E-03   2.190656107720000E-03
   2.229161586800000E-03   2.268325263300000E-03   2.308158388200000E-03
   2.348672404780000E-03   2.389878951930000E-03   2.431789867490000E-03
   2.474417191660000E-03   2.517773170450000E-03   2.561870259190000E-03
   2.606721126110000E-03   2.652338656020000E-03   2.698735953930000E-03
   2.745926348890000E-03   2.793923397800000E-03   2.842740889280000E-03
   2.892392847640000E-03   2.942893536940000E-03   2.994257465030000E-03
   3.046499387800000E-03   3.099634313320000E-03   3.153677506250000E-03
   3.208644492130000E-03   3.264551061920000E-03   3.321413276500000E-03
   3.379247471280000E-03   3.438070260900000E-03   3.497898544020000E-03
   3.558749508140000E-03   3.620640634570000E-03   3.683589703430000E-03
   3.747614798770000E-03   3.812734313760000E-03   3.878966955980000E-03
   3.946331752780000E-03   4.014848056770000E-03   4.084535551350000E-03
   4.155414256390000E-03   4.227504533980000E-03   4.300827094250000E-03
   4.375403001360000E-03   4.451253679530000E-03   4.528400919180000E-03
   4.606866883220000E-03   4.686674113410000E-03   4.767845536820000E-03
   4.850404472430000E-03   4.934374637820000E-03   5.019780156000000E-03
   5.106645562320000E-03   5.194995811530000E-03   5.284856284950000E-03
   5.376252797750000E-03   5.469211606390000E-03   5.563759416120000E-03
   5.659923388710000E-03   5.757731150200000E-03   5.857210798870000E-03
   5.958390913300000E-03   6.061300560580000E-03   6.165969304650000E-03
   6.272427214830000E-03   6.380704874410000E-03   6.490833389470000E-03
   6.602844397800000E-03   6.716770077980000E-03   6.832643158680000E-03
   6.950496927970000E-03   7.070365242980000E-03   7.192282539530000E-03
   7.316283842130000E-03   7.442404773930000E-03   7.570681567050000E-03
   7.701151072920000E-03   7.833850772910000E-03   7.968818789069999E-03
   8.106093895099999E-03   8.245715527490000E-03   8.387723796829999E-03
   8.532159499339999E-03   8.679064128610000E-03   8.828479887500001E-03
   8.980449700250000E-03   9.135017224870000E-03   9.292226865600000E-03
   9.452123785740001E-03   9.614753920570001E-03   9.780163990590000E-03
   9.948401514909999E-03   1.011951482490000E-02   1.029355307810000E-02
   1.047056627240000E-02   1.065060526020000E-02   1.083372176320000E-02
   1.101996838730000E-02   1.120939863750000E-02   1.140206693340000E-02
   1.159802862500000E-02   1.179734000820000E-02   1.200005834140000E-02
   1.220624186150000E-02   1.241594980110000E-02   1.262924240530000E-02
   1.284618094890000E-02   1.306682775420000E-02   1.329124620860000E-02
   1.351950078340000E-02   1.375165705150000E-02   1.398778170700000E-02
   1.422794258400000E-02   1.447220867600000E-02   1.472065015590000E-02
   1.497333839620000E-02   1.523034598930000E-02   1.549174676850000E-02
   1.575761582930000E-02   1.602802955060000E-02   1.630306561700000E-02
   1.658280304120000E-02   1.686732218620000E-02   1.715670478900000E-02
   1.745103398340000E-02   1.775039432470000E-02   1.805487181320000E-02
   1.836455391950000E-02   1.867952960910000E-02   1.899988936860000E-02
   1.932572523110000E-02   1.965713080290000E-02   1.999420129050000E-02
   2.033703352760000E-02   2.068572600330000E-02   2.104037889030000E-02
   2.140109407340000E-02   2.176797517920000E-02   2.214112760540000E-02
   2.252065855160000E-02   2.290667704960000E-02   2.329929399510000E-02
   2.369862217940000E-02   2.410477632170000E-02   2.451787310220000E-02
   2.493803119560000E-02   2.536537130520000E-02   2.580001619770000E-02
   2.624209073800000E-02   2.669172192550000E-02   2.714903893070000E-02
   2.761417313190000E-02   2.808725815310000E-02   2.856842990250000E-02
   2.905782661140000E-02   2.955558887410000E-02   3.006185968790000E-02
   3.057678449480000E-02   3.110051122260000E-02   3.163319032790000E-02
   3.217497483900000E-02   3.272602040030000E-02   3.328648531640000E-02
   3.385653059800000E-02   3.443632000820000E-02   3.502602010920000E-02
   3.562580031040000E-02   3.623583291710000E-02   3.685629317980000E-02
   3.748735934480000E-02   3.812921270510000E-02   3.878203765290000E-02
   3.944602173210000E-02   4.012135569240000E-02   4.080823354430000E-02
   4.150685261440000E-02   4.221741360260000E-02   4.294012063920000E-02
   4.367518134390000E-02   4.442280688550000E-02   4.518321204240000E-02
   4.595661526420000E-02   4.674323873470000E-02   4.754330843560000E-02
   4.835705421140000E-02   4.918470983560000E-02   5.002651307760000E-02
   5.088270577130000E-02   5.175353388400000E-02   5.263924758810000E-02
   5.354010133180000E-02   5.445635391300000E-02   5.538826855330000E-02
   5.633611297390000E-02   5.730015947190000E-02   5.828068499940000E-02
   5.927797124240000E-02   6.029230470190000E-02   6.132397677620000E-02
   6.237328384490000E-02   6.344052735340000E-02   6.452601390029999E-02
   6.563005532480000E-02   6.675296879660000E-02   6.789507690710000E-02
   6.905670776170000E-02   7.023819507470000E-02   7.143987826430000E-02
   7.266210255100000E-02   7.390521905609999E-02   7.516958490300001E-02
   7.645556331940000E-02   7.776352374220000E-02   7.909384192299999E-02
   8.044690003640000E-02   8.182308679000000E-02   8.322279753550001E-02
   8.464643438270000E-02   8.609440631500000E-02   8.756712930670001E-02
   8.906502644250000E-02   9.058852803940000E-02   9.213807176990001E-02
   9.371410278790000E-02   9.531707385660000E-02   9.694744547860000E-02
   9.860568602810001E-02   1.002922718860000E-01   1.020076875740000E-01
   1.037524259000000E-01   1.055269880930000E-01   1.073318839500000E-01
   1.091676319820000E-01   1.110347595660000E-01   1.129338030890000E-01
   1.148653081110000E-01   1.168298295160000E-01   1.188279316720000E-01
   1.208601885970000E-01   1.229271841170000E-01   1.250295120410000E-01
   1.271677763260000E-01   1.293425912560000E-01   1.315545816110000E-01
   1.338043828550000E-01   1.360926413110000E-01   1.384200143510000E-01
   1.407871705860000E-01   1.431947900530000E-01   1.456435644150000E-01
   1.481341971560000E-01   1.506674037890000E-01   1.532439120530000E-01
   1.558644621310000E-01   1.585298068550000E-01   1.612407119270000E-01
   1.639979561380000E-01   1.668023315900000E-01   1.696546439270000E-01
   1.725557125630000E-01   1.755063709190000E-01   1.785074666610000E-01
   1.815598619460000E-01   1.846644336690000E-01   1.878220737120000E-01
   1.910336892060000E-01   1.943002027840000E-01   1.976225528530000E-01
   2.010016938590000E-01   2.044385965650000E-01   2.079342483260000E-01
   2.114896533760000E-01   2.151058331130000E-01   2.187838263950000E-01
   2.225246898400000E-01   2.263294981250000E-01   2.301993442970000E-01
   2.341353400890000E-01   2.381386162350000E-01   2.422103228000000E-01
   2.463516295070000E-01   2.505637260720000E-01   2.548478225490000E-01
   2.592051496770000E-01   2.636369592310000E-01   2.681445243840000E-01
   2.727291400720000E-01   2.773921233670000E-01   2.821348138540000E-01
   2.869585740160000E-01   2.918647896260000E-01   2.968548701440000E-01
   3.019302491250000E-01   3.070923846260000E-01   3.123427596290000E-01
   3.176828824650000E-01   3.231142872490000E-01   3.286385343170000E-01
   3.342572106790000E-01   3.399719304720000E-01   3.457843354240000E-01
   3.516960953270000E-01   3.577089085150000E-01   3.638245023530000E-01
   3.700446337320000E-01   3.763710895770000E-01   3.828056873550000E-01
   3.893502756020000E-01   3.960067344510000E-01   4.027769761740000E-01
   4.096629457310000E-01   4.166666213270000E-01   4.237900149840000E-01
   4.310351731130000E-01   4.384041771090000E-01   4.458991439440000E-01
   4.535222267770000E-01   4.612756155720000E-01   4.691615377280000E-01
   4.771822587180000E-01   4.853400827390000E-01   4.936373533760000E-01
   5.020764542750000E-01   5.106598098270000E-01   5.193898858620000E-01
   5.282691903640000E-01   5.373002741830000E-01   5.464857317770000E-01
   5.558282019490000E-01   5.653303686100000E-01   5.749949615490000E-01
   5.848247572170000E-01   5.948225795220000E-01   6.049913006470000E-01
   6.153338418670000E-01   6.258531743960000E-01   6.365523202330000E-01
   6.474343530370000E-01   6.585023990040000E-01   6.697596377710000E-01
   6.812093033230000E-01   6.928546849280000E-01   7.046991280800000E-01
   7.167460354570000E-01   7.289988679029999E-01   7.414611454190000E-01
   7.541364481770000E-01   7.670284175460000E-01   7.801407571390000E-01
   7.934772338780000E-01   8.070416790730000E-01   8.208379895290000E-01
   8.348701286580000E-01   8.491421276210001E-01   8.636580864890000E-01
   8.784221754150000E-01   8.934386358360000E-01   9.087117816900000E-01
   9.242460006580000E-01   9.400457554190000E-01   9.561155849380000E-01
   9.724601057650000E-01   9.890840133640000E-01   1.005992083460000E+00
   1.023189173420000E+00   1.040680223640000E+00   1.058470258940000E+00
   1.076564390080000E+00   1.094967815130000E+00   1.113685821040000E+00
   1.132723785150000E+00   1.152087176680000E+00   1.171781558370000E+00
   1.191812588030000E+00   1.212186020180000E+00   1.232907707720000E+00
   1.253983603590000E+00   1.275419762490000E+00   1.297222342610000E+00
   1.319397607400000E+00   1.341951927400000E+00   1.364891782020000E+00
   1.388223761450000E+00   1.411954568490000E+00   1.436091020570000E+00
   1.460640051610000E+00   1.485608714070000E+00   1.511004180970000E+00
   1.536833747940000E+00   1.563104835310000E+00   1.589824990250000E+00
   1.617001888940000E+00   1.644643338790000E+00   1.672757280650000E+00
   1.701351791110000E+00   1.730435084820000E+00   1.760015516850000E+00
   1.790101585080000E+00   1.820701932660000E+00   1.851825350470000E+00
   1.883480779670000E+00   1.915677314260000E+00   1.948424203670000E+00
   1.981730855460000E+00   2.015606837970000E+00   2.050061883130000E+00
   2.085105889200000E+00   2.120748923640000E+00   2.157001226020000E+00
   2.193873210900000E+00   2.231375470920000E+00   2.269518779720000E+00
   2.308314095160000E+00   2.347772562370000E+00   2.387905517020000E+00
   2.428724488510000E+00   2.470241203350000E+00   2.512467588490000E+00
   2.555415774750000E+00   2.599098100310000E+00   2.643527114270000E+00
   2.688715580220000E+00   2.734676479920000E+00   2.781423017070000E+00
   2.828968621020000E+00   2.877326950720000E+00   2.926511898580000E+00
   2.976537594480000E+00   3.027418409830000E+00   3.079168961710000E+00
   3.131804117050000E+00   3.185338996910000E+00   3.239788980830000E+00
   3.295169711230000E+00   3.351497097940000E+00   3.408787322700000E+00
   3.467056843900000E+00   3.526322401250000E+00   3.586601020580000E+00
   3.647910018790000E+00   3.710267008760000E+00   3.773689904450000E+00
   3.838196926020000E+00   3.903806605100000E+00   3.970537790080000E+00
   4.038409651540000E+00   4.107441687740000E+00   4.177653730260000E+00
   4.249065949660000E+00   4.321698861280000E+00   4.395573331170000E+00
   4.470710582010000E+00   4.547132199300000E+00   4.624860137470000E+00
   4.703916726280000E+00   4.784324677130000E+00   4.866107089690000E+00
   4.949287458450000E+00   5.033889679530000E+00   5.119938057510000E+00
   5.207457312420000E+00   5.296472586850000E+00   5.387009453160000E+00
   5.479093920850000E+00   5.572752444000000E+00   5.668011928890000E+00
   5.764899741730000E+00   5.863443716510000E+00   5.963672163020000E+00
   6.065613874930000E+00   6.169298138140000E+00   6.274754739130000E+00
   6.382013973530000E+00   6.491106654850000E+00   6.602064123310000E+00
   6.714918254840000E+00   6.829701470240000E+00   6.946446744520000E+00
   7.065187616340000E+00   7.185958197640000E+00   7.308793183470000E+00
   7.433727861960000E+00   7.560798124420000E+00   7.690040475680000E+00
   7.821492044560000E+00   7.955190594550000E+00   8.091174534660000E+00
   8.229482930450001E+00   8.370155515230000E+00   8.513232701540000E+00
   8.658755592660000E+00   8.806765994510000E+00   8.957306427610000E+00
   9.110420139320000E+00   9.266151116250001E+00   9.424544096880000E+00
   9.585644584470000E+00   9.749498860050000E+00   9.916153995800000E+00
   1.008565786850000E+01   1.025805917340000E+01   1.043340743790000E+01
   1.061175303630000E+01   1.079314720390000E+01   1.097764205150000E+01
   1.116529058110000E+01   1.135614670040000E+01   1.155026523880000E+01
   1.174770196260000E+01   1.194851359160000E+01   1.215275781530000E+01
   1.236049330880000E+01   1.257177975070000E+01   1.278667783950000E+01
   1.300524931120000E+01   1.322755695710000E+01   1.345366464200000E+01
   1.368363732220000E+01   1.391754106440000E+01   1.415544306470000E+01
   1.439741166760000E+01   1.464351638610000E+01   1.489382792130000E+01
   1.514841818290000E+01   1.540736030970000E+01   1.567072869070000E+01
   1.593859898670000E+01   1.621104815150000E+01   1.648815445450000E+01
   1.676999750310000E+01   1.705665826530000E+01   1.734821909310000E+01
   1.764476374630000E+01   1.794637741660000E+01   1.825314675160000E+01
   1.856515988020000E+01   1.888250643790000E+01   1.920527759200000E+01
   1.953356606860000E+01   1.986746617850000E+01   2.020707384480000E+01
   2.055248663010000E+01   2.090380376500000E+01   2.126112617600000E+01
   2.162455651500000E+01   2.199419918830000E+01   2.237016038730000E+01
   2.275254811830000E+01   2.314147223390000E+01   2.353704446450000E+01
   2.393937845020000E+01   2.434858977400000E+01   2.476479599420000E+01
   2.518811667890000E+01   2.561867343990000E+01   2.605658996790000E+01
   2.650199206770000E+01   2.695500769490000E+01   2.741576699190000E+01
   2.788440232610000E+01   2.836104832730000E+01   2.884584192660000E+01
   2.933892239600000E+01   2.984043138780000E+01   3.035051297600000E+01
   3.086931369700000E+01   3.139698259230000E+01   3.193367125090000E+01
   3.247953385310000E+01   3.303472721470000E+01   3.359941083200000E+01
   3.417374692770000E+01   3.475790049730000E+01   3.535203935700000E+01
   3.595633419130000E+01   3.657095860240000E+01   3.719608916010000E+01
   3.783190545220000E+01   3.847859013640000E+01   3.913632899280000E+01
   3.980531097700000E+01   4.048572827460000E+01   4.117777635630000E+01
   4.188165403410000E+01   4.259756351850000E+01   4.332571047640000E+01
   4.406630409030000E+01   4.481955711850000E+01   4.558568595590000E+01
   4.636491069660000E+01   4.715745519670000E+01   4.796354713900000E+01
   4.878341809800000E+01   4.961730360690000E+01   5.046544322470000E+01
   5.132808060570000E+01   5.220546356870000E+01   5.309784416910000E+01
   5.400547877030000E+01   5.492862811840000E+01   5.586755741620000E+01
   5.682253640000000E+01   5.779383941670000E+01   5.878174550300000E+01
   5.978653846500000E+01   6.080850696040000E+01   6.184794458100000E+01
   6.290514993710000E+01   6.398042674320000E+01   6.507408390569999E+01
   6.618643561109999E+01   6.731780141640000E+01   6.846850634130000E+01
   6.963888096090000E+01   7.082926150119999E+01   7.203998993560000E+01
   7.327141408280001E+01   7.452388770720000E+01   7.579777062030000E+01
   7.709342878389999E+01   7.841123441560001E+01   7.975156609550000E+01
   8.111480887480000E+01   8.250135438680000E+01   8.391160095930000E+01
   8.534595372880000E+01   8.680482475709999E+01   8.828863314960000E+01
   8.979780517579999E+01   9.133277439150000E+01   9.289398176370000E+01
   9.448187579710000E+01   9.609691266300000E+01   9.773955633010000E+01
   9.941027869820000E+01   1.011095597330000E+02   1.028378876060000E+02
   1.045957588320000E+02   1.063836784140000E+02   1.082021599850000E+02
   1.100517259610000E+02   1.119329076860000E+02   1.138462455870000E+02
   1.157922893290000E+02   1.177715979730000E+02   1.197847401360000E+02
   1.218322941550000E+02   1.239148482520000E+02   1.260330007050000E+02
   1.281873600180000E+02   1.303785450960000E+02   1.326071854260000E+02
   1.348739212520000E+02   1.371794037630000E+02   1.395242952800000E+02
   1.419092694450000E+02   1.443350114150000E+02   1.468022180590000E+02
   1.493115981560000E+02   1.518638726050000E+02   1.544597746230000E+02
   1.571000499630000E+02   1.597854571260000E+02   1.625167675760000E+02
   1.652947659660000E+02   1.681202503620000E+02   1.709940324700000E+02
   1.739169378730000E+02   1.768898062640000E+02   1.799134916920000E+02
   1.829888628020000E+02   1.861168030890000E+02   1.892982111500000E+02
   1.925340009420000E+02   1.958251020440000E+02   1.991724599270000E+02
   2.025770362210000E+02   2.060398089950000E+02
    </PP_R>
    <PP_RAB>
   1.050318718930000E-06   1.068272451590000E-06   1.086533078250000E-06
   1.105105844840000E-06   1.123996086960000E-06   1.143209231400000E-06
   1.162750797740000E-06   1.182626399870000E-06   1.202841747690000E-06
   1.223402648660000E-06   1.244315009550000E-06   1.265584838050000E-06
   1.287218244590000E-06   1.309221444020000E-06   1.331600757440000E-06
   1.354362613990000E-06   1.377513552710000E-06   1.401060224410000E-06
   1.425009393610000E-06   1.449367940430000E-06   1.474142862620000E-06
   1.499341277520000E-06   1.524970424160000E-06   1.551037665290000E-06
   1.577550489530000E-06   1.604516513500000E-06   1.631943484010000E-06
   1.659839280310000E-06   1.688211916310000E-06   1.717069542930000E-06
   1.746420450400000E-06   1.776273070670000E-06   1.806635979820000E-06
   1.837517900530000E-06   1.868927704580000E-06   1.900874415380000E-06
   1.933367210630000E-06   1.966415424860000E-06   2.000028552190000E-06
   2.034216249030000E-06   2.068988336820000E-06   2.104354804930000E-06
   2.140325813460000E-06   2.176911696170000E-06   2.214122963490000E-06
   2.251970305490000E-06   2.290464594980000E-06   2.329616890630000E-06
   2.369438440130000E-06   2.409940683440000E-06   2.451135256080000E-06
   2.493033992450000E-06   2.535648929240000E-06   2.578992308890000E-06
   2.623076583140000E-06   2.667914416530000E-06   2.713518690100000E-06
   2.759902505080000E-06   2.807079186650000E-06   2.855062287750000E-06
   2.903865592990000E-06   2.953503122630000E-06   3.003989136560000E-06
   3.055338138450000E-06   3.107564879850000E-06   3.160684364510000E-06
   3.214711852630000E-06   3.269662865250000E-06   3.325553188750000E-06
   3.382398879330000E-06   3.440216267650000E-06   3.499021963530000E-06
   3.558832860710000E-06   3.619666141710000E-06   3.681539282750000E-06
   3.744470058780000E-06   3.808476548600000E-06   3.873577140040000E-06
   3.939790535230000E-06   4.007135756010000E-06   4.075632149340000E-06
   4.145299392930000E-06   4.216157500810000E-06   4.288226829160000E-06
   4.361528082100000E-06   4.436082317660000E-06   4.511910953820000E-06
   4.589035774690000E-06   4.667478936740000E-06   4.747262975170000E-06
   4.828410810380000E-06   4.910945754590000E-06   4.994891518480000E-06
   5.080272218050000E-06   5.167112381520000E-06   5.255436956390000E-06
   5.345271316600000E-06   5.436641269830000E-06   5.529573064880000E-06
   5.624093399280000E-06   5.720229426880000E-06   5.818008765700000E-06
   5.917459505860000E-06   6.018610217630000E-06   6.121489959640000E-06
   6.226128287270000E-06   6.332555261070000E-06   6.440801455460000E-06
   6.550897967470000E-06   6.662876425700000E-06   6.776768999400000E-06
   6.892608407690000E-06   7.010427929000000E-06   7.130261410600000E-06
   7.252143278330000E-06   7.376108546480000E-06   7.502192827890000E-06
   7.630432344119999E-06   7.760863935899999E-06   7.893525073720000E-06
   8.028453868550001E-06   8.165689082810000E-06   8.305270141529999E-06
   8.447237143660000E-06   8.591630873549999E-06   8.738492812729999E-06
   8.887865151809999E-06   9.039790802549999E-06   9.194313410270000E-06
   9.351477366310000E-06   9.511327820840000E-06   9.673910695800000E-06
   9.839272698100001E-06   1.000746133310000E-05   1.017852491800000E-05
   1.035251259620000E-05   1.052947435090000E-05   1.070946101990000E-05
   1.089252430970000E-05   1.107871681100000E-05   1.126809201330000E-05
   1.146070432040000E-05   1.165660906600000E-05   1.185586252990000E-05
   1.205852195360000E-05   1.226464555740000E-05   1.247429255650000E-05
   1.268752317850000E-05   1.290439868030000E-05   1.312498136620000E-05
   1.334933460520000E-05   1.357752284980000E-05   1.380961165400000E-05
   1.404566769230000E-05   1.428575877920000E-05   1.452995388810000E-05
   1.477832317160000E-05   1.503093798140000E-05   1.528787088880000E-05
   1.554919570570000E-05   1.581498750560000E-05   1.608532264540000E-05
   1.636027878720000E-05   1.663993492040000E-05   1.692437138490000E-05
   1.721366989390000E-05   1.750791355710000E-05   1.780718690510000E-05
   1.811157591330000E-05   1.842116802670000E-05   1.873605218530000E-05
   1.905631884910000E-05   1.938206002460000E-05   1.971336929090000E-05
   2.005034182660000E-05   2.039307443760000E-05   2.074166558430000E-05
   2.109621541010000E-05   2.145682577040000E-05   2.182360026150000E-05
   2.219664425060000E-05   2.257606490620000E-05   2.296197122830000E-05
   2.335447408040000E-05   2.375368622100000E-05   2.415972233600000E-05
   2.457269907170000E-05   2.499273506830000E-05   2.541995099410000E-05
   2.585446957990000E-05   2.629641565450000E-05   2.674591618050000E-05
   2.720310029060000E-05   2.766809932510000E-05   2.814104686910000E-05
   2.862207879130000E-05   2.911133328290000E-05   2.960895089720000E-05
   3.011507459010000E-05   3.062984976120000E-05   3.115342429540000E-05
   3.168594860560000E-05   3.222757567570000E-05   3.277846110460000E-05
   3.333876315120000E-05   3.390864277920000E-05   3.448826370410000E-05
   3.507779243990000E-05   3.567739834660000E-05   3.628725367950000E-05
   3.690753363810000E-05   3.753841641700000E-05   3.818008325650000E-05
   3.883271849520000E-05   3.949650962240000E-05   4.017164733250000E-05
   4.085832557960000E-05   4.155674163290000E-05   4.226709613400000E-05
   4.298959315390000E-05   4.372444025200000E-05   4.447184853560000E-05
   4.523203272080000E-05   4.600521119380000E-05   4.679160607360000E-05
   4.759144327650000E-05   4.840495258000000E-05   4.923236768980000E-05
   5.007392630610000E-05   5.092987019240000E-05   5.180044524490000E-05
   5.268590156300000E-05   5.358649352100000E-05   5.450247984170000E-05
   5.543412367020000E-05   5.638169264980000E-05   5.734545899860000E-05
   5.832569958800000E-05   5.932269602240000E-05   6.033673471930000E-05
   6.136810699260000E-05   6.241710913540000E-05   6.348404250600000E-05
   6.456921361340000E-05   6.567293420650000E-05   6.679552136270000E-05
   6.793729757960000E-05   6.909859086750000E-05   7.027973484350000E-05
   7.148106882729999E-05   7.270293793890001E-05   7.394569319779999E-05
   7.520969162339999E-05   7.649529633800000E-05   7.780287667110000E-05
   7.913280826500000E-05   8.048547318350000E-05   8.186126002090000E-05
   8.326056401430000E-05   8.468378715660000E-05   8.613133831220000E-05
   8.760363333450001E-05   8.910109518560000E-05   9.062415405709999E-05
   9.217324749440000E-05   9.374882052210000E-05   9.535132577180000E-05
   9.698122361220000E-05   9.863898228160000E-05   1.003250780220000E-04
   1.020399952160000E-04   1.037842265250000E-04   1.055582730350000E-04
   1.073626443940000E-04   1.091978589630000E-04   1.110644439640000E-04
   1.129629356310000E-04   1.148938793630000E-04   1.168578298830000E-04
   1.188553513960000E-04   1.208870177520000E-04   1.229534126090000E-04