<UPF version="2.0.1">
<PP_INFO>

This pseudopotential file has been produced using the code
ONCVPSP  (Optimized Norm-Conservinng Vanderbilt PSeudopotential)
scalar-relativistic version 3.3.0 08/16/2017 by D. R. Hamann
The code is available through a link at URL www.mat-simresearch.com.
Documentation with the package provides a full discription of the
input data below.


While it is not required under the terms of the GNU GPL, it is
suggested that you cite D. R. Hamann, Phys. Rev. B 88, 085117 (2013)
in any publication using these pseudopotentials.

<PP_INPUTFILE>
# ATOM AND REFERENCE CONFIGURATION
# atsym  z   nc   nv     iexc    psfile
Ar 18.00    3    2   -1012      upf
#
#   n    l    f        energy (Ha)
1    0    2.00
2    0    2.00
2    1    6.00
3    0    2.00
3    1    6.00
#
# PSEUDOPOTENTIAL AND OPTIMIZATION
# lmax
2
#
#   l,   rc,      ep,       ncon, nbas, qcut
0   1.55000  -0.89165    4    8   8.20000
1   1.55000  -0.38163    4    8   8.20000
2   1.55000   0.10000    4    8   8.20000
#
# LOCAL POTENTIAL
# lloc, lpopt,  rc(5),   dvloc0
4    5   1.50000      0.00000
#
# VANDERBILT-KLEINMAN-BYLANDER PROJECTORs
# l, nproj, debl
0    2   1.50000
1    2   1.50000
2    2   1.00000
#
# MODEL CORE CHARGE
# icmod, fcfact, rcfact
3   7.00000   1.25000
#
# LOG DERIVATIVE ANALYSIS
# epsh1, epsh2, depsh
-12.00   12.00    0.02
#
# OUTPUT GRID
# rlmax, drl
4.00    0.01
#
# TEST CONFIGURATIONS
# ncnf
0
# nvcnf
#   n    l    f
</PP_INPUTFILE>
</PP_INFO>
<!--                               -->
<!-- END OF HUMAN READABLE SECTION -->
<!--                               -->
<PP_HEADER
generated="Generated using ONCVPSP code by D. R. Hamann"
author="anonymous"
date="180309"
comment=""
element="Ar"
pseudo_type="NC"
relativistic="scalar"
is_ultrasoft="F"
is_paw="F"
is_coulomb="F"
has_so="F"
has_wfc="F"
has_gipaw="F"
core_correction="T"
functional="SLA  PW   NOGX NOGC"
z_valence="    8.00"
total_psenergy="  -4.23880460926E+01"
rho_cutoff="   9.25000000000E+00"
l_max="2"
l_local="-1"
mesh_size="   926"
number_of_wfc="2"
number_of_proj="6"/>
<PP_MESH>
<PP_R type="real"  size=" 926" columns="8">
0.0000    0.0100    0.0200    0.0300    0.0400    0.0500    0.0600    0.0700
0.0800    0.0900    0.1000    0.1100    0.1200    0.1300    0.1400    0.1500
0.1600    0.1700    0.1800    0.1900    0.2000    0.2100    0.2200    0.2300
0.2400    0.2500    0.2600    0.2700    0.2800    0.2900    0.3000    0.3100
0.3200    0.3300    0.3400    0.3500    0.3600    0.3700    0.3800    0.3900
0.4000    0.4100    0.4200    0.4300    0.4400    0.4500    0.4600    0.4700
0.4800    0.4900    0.5000    0.5100    0.5200    0.5300    0.5400    0.5500
0.5600    0.5700    0.5800    0.5900    0.6000    0.6100    0.6200    0.6300
0.6400    0.6500    0.6600    0.6700    0.6800    0.6900    0.7000    0.7100
0.7200    0.7300    0.7400    0.7500    0.7600    0.7700    0.7800    0.7900
0.8000    0.8100    0.8200    0.8300    0.8400    0.8500    0.8600    0.8700
0.8800    0.8900    0.9000    0.9100    0.9200    0.9300    0.9400    0.9500
0.9600    0.9700    0.9800    0.9900    1.0000    1.0100    1.0200    1.0300
1.0400    1.0500    1.0600    1.0700    1.0800    1.0900    1.1000    1.1100
1.1200    1.1300    1.1400    1.1500    1.1600    1.1700    1.1800    1.1900
1.2000    1.2100    1.2200    1.2300    1.2400    1.2500    1.2600    1.2700
1.2800    1.2900    1.3000    1.3100    1.3200    1.3300    1.3400    1.3500
1.3600    1.3700    1.3800    1.3900    1.4000    1.4100    1.4200    1.4300
1.4400    1.4500    1.4600    1.4700    1.4800    1.4900    1.5000    1.5100
1.5200    1.5300    1.5400    1.5500    1.5600    1.5700    1.5800    1.5900
1.6000    1.6100    1.6200    1.6300    1.6400    1.6500    1.6600    1.6700
1.6800    1.6900    1.7000    1.7100    1.7200    1.7300    1.7400    1.7500
1.7600    1.7700    1.7800    1.7900    1.8000    1.8100    1.8200    1.8300
1.8400    1.8500    1.8600    1.8700    1.8800    1.8900    1.9000    1.9100
1.9200    1.9300    1.9400    1.9500    1.9600    1.9700    1.9800    1.9900
2.0000    2.0100    2.0200    2.0300    2.0400    2.0500    2.0600    2.0700
2.0800    2.0900    2.1000    2.1100    2.1200    2.1300    2.1400    2.1500
2.1600    2.1700    2.1800    2.1900    2.2000    2.2100    2.2200    2.2300
2.2400    2.2500    2.2600    2.2700    2.2800    2.2900    2.3000    2.3100
2.3200    2.3300    2.3400    2.3500    2.3600    2.3700    2.3800    2.3900
2.4000    2.4100    2.4200    2.4300    2.4400    2.4500    2.4600    2.4700
2.4800    2.4900    2.5000    2.5100    2.5200    2.5300    2.5400    2.5500
2.5600    2.5700    2.5800    2.5900    2.6000    2.6100    2.6200    2.6300
2.6400    2.6500    2.6600    2.6700    2.6800    2.6900    2.7000    2.7100
2.7200    2.7300    2.7400    2.7500    2.7600    2.7700    2.7800    2.7900
2.8000    2.8100    2.8200    2.8300    2.8400    2.8500    2.8600    2.8700
2.8800    2.8900    2.9000    2.9100    2.9200    2.9300    2.9400    2.9500
2.9600    2.9700    2.9800    2.9900    3.0000    3.0100    3.0200    3.0300
3.0400    3.0500    3.0600    3.0700    3.0800    3.0900    3.1000    3.1100
3.1200    3.1300    3.1400    3.1500    3.1600    3.1700    3.1800    3.1900
3.2000    3.2100    3.2200    3.2300    3.2400    3.2500    3.2600    3.2700
3.2800    3.2900    3.3000    3.3100    3.3200    3.3300    3.3400    3.3500
3.3600    3.3700    3.3800    3.3900    3.4000    3.4100    3.4200    3.4300
3.4400    3.4500    3.4600    3.4700    3.4800    3.4900    3.5000    3.5100
3.5200    3.5300    3.5400    3.5500    3.5600    3.5700    3.5800    3.5900
3.6000    3.6100    3.6200    3.6300    3.6400    3.6500    3.6600    3.6700
3.6800    3.6900    3.7000    3.7100    3.7200    3.7300    3.7400    3.7500
3.7600    3.7700    3.7800    3.7900    3.8000    3.8100    3.8200    3.8300
3.8400    3.8500    3.8600    3.8700    3.8800    3.8900    3.9000    3.9100
3.9200    3.9300    3.9400    3.9500    3.9600    3.9700    3.9800    3.9900
4.0000    4.0100    4.0200    4.0300    4.0400    4.0500    4.0600    4.0700
4.0800    4.0900    4.1000    4.1100    4.1200    4.1300    4.1400    4.1500
4.1600    4.1700    4.1800    4.1900    4.2000    4.2100    4.2200    4.2300
4.2400    4.2500    4.2600    4.2700    4.2800    4.2900    4.3000    4.3100
4.3200    4.3300    4.3400    4.3500    4.3600    4.3700    4.3800    4.3900
4.4000    4.4100    4.4200    4.4300    4.4400    4.4500    4.4600    4.4700
4.4800    4.4900    4.5000    4.5100    4.5200    4.5300    4.5400    4.5500
4.5600    4.5700    4.5800    4.5900    4.6000    4.6100    4.6200    4.6300
4.6400    4.6500    4.6600    4.6700    4.6800    4.6900    4.7000    4.7100
4.7200    4.7300    4.7400    4.7500    4.7600    4.7700    4.7800    4.7900
4.8000    4.8100    4.8200    4.8300    4.8400    4.8500    4.8600    4.8700
4.8800    4.8900    4.9000    4.9100    4.9200    4.9300    4.9400    4.9500
4.9600    4.9700    4.9800    4.9900    5.0000    5.0100    5.0200    5.0300
5.0400    5.0500    5.0600    5.0700    5.0800    5.0900    5.1000    5.1100
5.1200    5.1300    5.1400    5.1500    5.1600    5.1700    5.1800    5.1900
5.2000    5.2100    5.2200    5.2300    5.2400    5.2500    5.2600    5.2700
5.2800    5.2900    5.3000    5.3100    5.3200    5.3300    5.3400    5.3500
5.3600    5.3700    5.3800    5.3900    5.4000    5.4100    5.4200    5.4300
5.4400    5.4500    5.4600    5.4700    5.4800    5.4900    5.5000    5.5100
5.5200    5.5300    5.5400    5.5500    5.5600    5.5700    5.5800    5.5900
5.6000    5.6100    5.6200    5.6300    5.6400    5.6500    5.6600    5.6700
5.6800    5.6900    5.7000    5.7100    5.7200    5.7300    5.7400    5.7500
5.7600    5.7700    5.7800    5.7900    5.8000    5.8100    5.8200    5.8300
5.8400    5.8500    5.8600    5.8700    5.8800    5.8900    5.9000    5.9100
5.9200    5.9300    5.9400    5.9500    5.9600    5.9700    5.9800    5.9900
6.0000    6.0100    6.0200    6.0300    6.0400    6.0500    6.0600    6.0700
6.0800    6.0900    6.1000    6.1100    6.1200    6.1300    6.1400    6.1500
6.1600    6.1700    6.1800    6.1900    6.2000    6.2100    6.2200    6.2300
6.2400    6.2500    6.2600    6.2700    6.2800    6.2900    6.3000    6.3100
6.3200    6.3300    6.3400    6.3500    6.3600    6.3700    6.3800    6.3900
6.4000    6.4100    6.4200    6.4300    6.4400    6.4500    6.4600    6.4700
6.4800    6.4900    6.5000    6.5100    6.5200    6.5300    6.5400    6.5500
6.5600    6.5700    6.5800    6.5900    6.6000    6.6100    6.6200    6.6300
6.6400    6.6500    6.6600    6.6700    6.6800    6.6900    6.7000    6.7100
6.7200    6.7300    6.7400    6.7500    6.7600    6.7700    6.7800    6.7900
6.8000    6.8100    6.8200    6.8300    6.8400    6.8500    6.8600    6.8700
6.8800    6.8900    6.9000    6.9100    6.9200    6.9300    6.9400    6.9500
6.9600    6.9700    6.9800    6.9900    7.0000    7.0100    7.0200    7.0300
7.0400    7.0500    7.0600    7.0700    7.0800    7.0900    7.1000    7.1100
7.1200    7.1300    7.1400    7.1500    7.1600    7.1700    7.1800    7.1900
7.2000    7.2100    7.2200    7.2300    7.2400    7.2500    7.2600    7.2700
7.2800    7.2900    7.3000    7.3100    7.3200    7.3300    7.3400    7.3500
7.3600    7.3700    7.3800    7.3900    7.4000    7.4100    7.4200    7.4300
7.4400    7.4500    7.4600    7.4700    7.4800    7.4900    7.5000    7.5100
7.5200    7.5300    7.5400    7.5500    7.5600    7.5700    7.5800    7.5900
7.6000    7.6100    7.6200    7.6300    7.6400    7.6500    7.6600    7.6700
7.6800    7.6900    7.7000    7.7100    7.7200    7.7300    7.7400    7.7500
7.7600    7.7700    7.7800    7.7900    7.8000    7.8100    7.8200    7.8300
7.8400    7.8500    7.8600    7.8700    7.8800    7.8900    7.9000    7.9100
7.9200    7.9300    7.9400    7.9500    7.9600    7.9700    7.9800    7.9900
8.0000    8.0100    8.0200    8.0300    8.0400    8.0500    8.0600    8.0700
8.0800    8.0900    8.1000    8.1100    8.1200    8.1300    8.1400    8.1500
8.1600    8.1700    8.1800    8.1900    8.2000    8.2100    8.2200    8.2300
8.2400    8.2500    8.2600    8.2700    8.2800    8.2900    8.3000    8.3100
8.3200    8.3300    8.3400    8.3500    8.3600    8.3700    8.3800    8.3900
8.4000    8.4100    8.4200    8.4300    8.4400    8.4500    8.4600    8.4700
8.4800    8.4900    8.5000    8.5100    8.5200    8.5300    8.5400    8.5500
8.5600    8.5700    8.5800    8.5900    8.6000    8.6100    8.6200    8.6300
8.6400    8.6500    8.6600    8.6700    8.6800    8.6900    8.7000    8.7100
8.7200    8.7300    8.7400    8.7500    8.7600    8.7700    8.7800    8.7900
8.8000    8.8100    8.8200    8.8300    8.8400    8.8500    8.8600    8.8700
8.8800    8.8900    8.9000    8.9100    8.9200    8.9300    8.9400    8.9500
8.9600    8.9700    8.9800    8.9900    9.0000    9.0100    9.0200    9.0300
9.0400    9.0500    9.0600    9.0700    9.0800    9.0900    9.1000    9.1100
9.1200    9.1300    9.1400    9.1500    9.1600    9.1700    9.1800    9.1900
9.2000    9.2100    9.2200    9.2300    9.2400    9.2500
</PP_R>
<PP_RAB type="real"  size=" 926" columns="8">
0.0100    0.0100    0.0100    0.0100    0.0100    0.0100    0.0100    0.0100
0.0100    0.0100    0.0100    0.0100    0.0100    0.0100    0.0100    0.0100
0.0100    0.0100    0.0100    0.0100    0.0100    0.0100    0.0100    0.0100
0.0100    0.0100    0.0100    0.0100    0.0100    0.0100    0.0100    0.0100
0.0100    0.0100    0.0100    0.0100    0.0100    0.0100    0.0100    0.0100
0.0100    0.0100    0.0100    0.0100    0.0100    0.0100    0.0100    0.0100
0.0100    0.0100    0.0100    0.0100    0.0100    0.0100    0.0100    0.0100
0.0100    0.0100    0.0100    0.0100    0.0100    0.0100    0.0100    0.0100
0.0100    0.0100    0.0100    0.0100    0.0100    0.0100    0.0100    0.0100
0.0100    0.0100    0.0100    0.0100    0.0100    0.0100    0.0100    0.0100
0.0100    0.0100    0.0100    0.0100    0.0100    0.0100    0.0100    0.0100
0.0100    0.0100    0.0100    0.0100    0.0100    0.0100    0.0100    0.0100
0.0100    0.0100    0.0100    0.0100    0.0100    0.0100    0.0100    0.0100
0.0100    0.0100    0.0100    0.0100    0.0100    0.0100    0.0100    0.0100
0.0100    0.0100    0.0100    0.0100    0.0100    0.0100    0.0100    0.0100
0.0100    0.0100    0.0100    0.0100    0.0100    0.0100    0.0100    0.0100
0.0100    0.0100    0.0100    0.0100    0.0100    0.0100    0.0100    0.0100
0.0100    0.0100    0.0100    0.0100    0.0100    0.0100    0.0100    0.0100
0.0100    0.0100    0.0100    0.0100    0.0100    0.0100    0.0100    0.0100
0.0100    0.0100    0.0100    0.0100    0.0100    0.0100    0.0100    0.0100
0.0100    0.0100    0.0100    0.0100    0.0100    0.0100    0.0100    0.0100
0.0100    0.0100    0.0100    0.0100    0.0100    0.0100    0.0100    0.0100
0.0100    0.0100    0.0100    0.0100    0.0100    0.0100    0.0100    0.0100
0.0100    0.0100    0.0100    0.0100    0.0100    0.0100    0.0100    0.0100
0.0100    0.0100    0.0100    0.0100    0.0100    0.0100    0.0100    0.0100
0.0100    0.0100    0.0100    0.0100    0.0100    0.0100    0.0100    0.0100
0.0100    0.0100    0.0100    0.0100    0.0100    0.0100    0.0100    0.0100
0.0100    0.0100    0.0100    0.0100    0.0100    0.0100    0.0100    0.0100
0.0100    0.0100    0.0100    0.0100    0.0100    0.0100    0.0100    0.0100
0.0100    0.0100    0.0100    0.0100    0.0100    0.0100    0.0100    0.0100
0.0100    0.0100    0.0100    0.0100    0.0100    0.0100    0.0100    0.0100
0.0100    0.0100    0.0100    0.0100    0.0100    0.0100    0.0100    0.0100
0.0100    0.0100    0.0100    0.0100    0.0100    0.0100    0.0100    0.0100
0.0100    0.0100    0.0100    0.0100    0.0100    0.0100    0.0100    0.0100
0.0100    0.0100    0.0100    0.0100    0.0100    0.0100    0.0100    0.0100
0.0100    0.0100    0.0100    0.0100    0.0100    0.0100    0.0100    0.0100
0.0100    0.0100    0.0100    0.0100    0.0100    0.0100    0.0100    0.0100
0.0100    0.0100    0.0100    0.0100    0.0100    0.0100    0.0100    0.0100
0.0100    0.0100    0.0100    0.0100    0.0100    0.0100    0.0100    0.0100
0.0100    0.0100    0.0100    0.0100    0.0100    0.0100    0.0100    0.0100
0.0100    0.0100    0.0100    0.0100    0.0100    0.0100    0.0100    0.0100
0.0100    0.0100    0.0100    0.0100    0.0100    0.0100    0.0100    0.0100
0.0100    0.0100    0.0100    0.0100    0.0100    0.0100    0.0100    0.0100
0.0100    0.0100    0.0100    0.0100    0.0100    0.0100    0.0100    0.0100
0.0100    0.0100    0.0100    0.0100    0.0100    0.0100    0.0100    0.0100
0.0100    0.0100    0.0100    0.0100    0.0100    0.0100    0.0100    0.0100
0.0100    0.0100    0.0100    0.0100    0.0100    0.0100    0.0100    0.0100
0.0100    0.0100    0.0100    0.0100    0.0100    0.0100    0.0100    0.0100
0.0100    0.0100    0.0100    0.0100    0.0100    0.0100    0.0100    0.0100
0.0100    0.0100    0.0100    0.0100    0.0100    0.0100    0.0100    0.0100
0.0100    0.0100    0.0100    0.0100    0.0100    0.0100    0.0100    0.0100
0.0100    0.0100    0.0100    0.0100    0.0100    0.0100    0.0100    0.0100
0.0100    0.0100    0.0100    0.0100    0.0100    0.0100    0.0100    0.0100
0.0100    0.0100    0.0100    0.0100    0.0100    0.0100    0.0100    0.0100
0.0100    0.0100    0.0100    0.0100    0.0100    0.0100    0.0100    0.0100
0.0100    0.0100    0.0100    0.0100    0.0100    0.0100    0.0100    0.0100
0.0100    0.0100    0.0100    0.0100    0.0100    0.0100    0.0100    0.0100
0.0100    0.0100    0.0100    0.0100    0.0100    0.0100    0.0100    0.0100
0.0100    0.0100    0.0100    0.0100    0.0100    0.0100    0.0100    0.0100
0.0100    0.0100    0.0100    0.0100    0.0100    0.0100    0.0100    0.0100
0.0100    0.0100    0.0100    0.0100    0.0100    0.0100    0.0100    0.0100
0.0100    0.0100    0.0100    0.0100    0.0100    0.0100    0.0100    0.0100
0.0100    0.0100    0.0100    0.0100    0.0100    0.0100    0.0100    0.0100
0.0100    0.0100    0.0100    0.0100    0.0100    0.0100    0.0100    0.0100
0.0100    0.0100    0.0100    0.0100    0.0100    0.0100    0.0100    0.0100
0.0100    0.0100    0.0100    0.0100    0.0100    0.0100    0.0100    0.0100
0.0100    0.0100    0.0100    0.0100    0.0100    0.0100    0.0100    0.0100
0.0100    0.0100    0.0100    0.0100    0.0100    0.0100    0.0100    0.0100
0.0100    0.0100    0.0100    0.0100    0.0100    0.0100    0.0100    0.0100
0.0100    0.0100    0.0100    0.0100    0.0100    0.0100    0.0100    0.0100
0.0100    0.0100    0.0100    0.0100    0.0100    0.0100    0.0100    0.0100
0.0100    0.0100    0.0100    0.0100    0.0100    0.0100    0.0100    0.0100
0.0100    0.0100    0.0100    0.0100    0.0100    0.0100    0.0100    0.0100
0.0100    0.0100    0.0100    0.0100    0.0100    0.0100    0.0100    0.0100
0.0100    0.0100    0.0100    0.0100    0.0100    0.0100    0.0100    0.0100
0.0100    0.0100    0.0100    0.0100    0.0100    0.0100    0.0100    0.0100
0.0100    0.0100    0.0100    0.0100    0.0100    0.0100    0.0100    0.0100
0.0100    0.0100    0.0100    0.0100    0.0100    0.0100    0.0100    0.0100
0.0100    0.0100    0.0100    0.0100    0.0100    0.0100    0.0100    0.0100
0.0100    0.0100    0.0100    0.0100    0.0100    0.0100    0.0100    0.0100
0.0100    0.0100    0.0100    0.0100    0.0100    0.0100    0.0100    0.0100
0.0100    0.0100    0.0100    0.0100    0.0100    0.0100    0.0100    0.0100
0.0100    0.0100    0.0100    0.0100    0.0100    0.0100    0.0100    0.0100
0.0100    0.0100    0.0100    0.0100    0.0100    0.0100    0.0100    0.0100
0.0100    0.0100    0.0100    0.0100    0.0100    0.0100    0.0100    0.0100
0.0100    0.0100    0.0100    0.0100    0.0100    0.0100    0.0100    0.0100
0.0100    0.0100    0.0100    0.0100    0.0100    0.0100    0.0100    0.0100
0.0100    0.0100    0.0100    0.0100    0.0100    0.0100    0.0100    0.0100
0.0100    0.0100    0.0100    0.0100    0.0100    0.0100    0.0100    0.0100
0.0100    0.0100    0.0100    0.0100    0.0100    0.0100    0.0100    0.0100
0.0100    0.0100    0.0100    0.0100    0.0100    0.0100    0.0100    0.0100
0.0100    0.0100    0.0100    0.0100    0.0100    0.0100    0.0100    0.0100
0.0100    0.0100    0.0100    0.0100    0.0100    0.0100    0.0100    0.0100
0.0100    0.0100    0.0100    0.0100    0.0100    0.0100    0.0100    0.0100
0.0100    0.0100    0.0100    0.0100    0.0100    0.0100    0.0100    0.0100
0.0100    0.0100    0.0100    0.0100    0.0100    0.0100    0.0100    0.0100
0.0100    0.0100    0.0100    0.0100    0.0100    0.0100    0.0100    0.0100
0.0100    0.0100    0.0100    0.0100    0.0100    0.0100    0.0100    0.0100
0.0100    0.0100    0.0100    0.0100    0.0100    0.0100    0.0100    0.0100
0.0100    0.0100    0.0100    0.0100    0.0100    0.0100    0.0100    0.0100
0.0100    0.0100    0.0100    0.0100    0.0100    0.0100    0.0100    0.0100
0.0100    0.0100    0.0100    0.0100    0.0100    0.0100    0.0100    0.0100
0.0100    0.0100    0.0100    0.0100    0.0100    0.0100    0.0100    0.0100
0.0100    0.0100    0.0100    0.0100    0.0100    0.0100    0.0100    0.0100
0.0100    0.0100    0.0100    0.0100    0.0100    0.0100    0.0100    0.0100
0.0100    0.0100    0.0100    0.0100    0.0100    0.0100    0.0100    0.0100
0.0100    0.0100    0.0100    0.0100    0.0100    0.0100    0.0100    0.0100
0.0100    0.0100    0.0100    0.0100    0.0100    0.0100    0.0100    0.0100
0.0100    0.0100    0.0100    0.0100    0.0100    0.0100    0.0100    0.0100
0.0100    0.0100    0.0100    0.0100    0.0100    0.0100    0.0100    0.0100
0.0100    0.0100    0.0100    0.0100    0.0100    0.0100    0.0100    0.0100
0.0100    0.0100    0.0100    0.0100    0.0100    0.0100    0.0100    0.0100
0.0100    0.0100    0.0100    0.0100    0.0100    0.0100    0.0100    0.0100
0.0100    0.0100    0.0100    0.0100    0.0100    0.0100    0.0100    0.0100
0.0100    0.0100    0.0100    0.0100    0.0100    0.0100    0.0100    0.0100
0.0100    0.0100    0.0100    0.0100    0.0100    0.0100
</PP_RAB>
</PP_MESH>
<PP_LOCAL type="real"  size=" 926" columns="4">
-2.1435874518E+01   -2.1435303629E+01   -2.1433590826E+01   -2.1430735729E+01
-2.1426737702E+01   -2.1421595854E+01   -2.1415309038E+01   -2.1407875854E+01
-2.1399294645E+01   -2.1389563502E+01   -2.1378680260E+01   -2.1366642498E+01
-2.1353447544E+01   -2.1339092472E+01   -2.1323574103E+01   -2.1306889008E+01
-2.1289033507E+01   -2.1270003676E+01   -2.1249795342E+01   -2.1228404094E+01
-2.1205825281E+01   -2.1182054018E+01   -2.1157085193E+01   -2.1130913471E+01
-2.1103533300E+01   -2.1074938921E+01   -2.1045124377E+01   -2.1014083520E+01
-2.0981810025E+01   -2.0948297401E+01   -2.0913539006E+01   -2.0877528062E+01
-2.0840257669E+01   -2.0801720830E+01   -2.0761910462E+01   -2.0720819427E+01
-2.0678440549E+01   -2.0634766642E+01   -2.0589790538E+01   -2.0543505117E+01
-2.0495903337E+01   -2.0446978269E+01   -2.0396723133E+01   -2.0345131339E+01
-2.0292196523E+01   -2.0237912595E+01   -2.0182273783E+01   -2.0125274679E+01
-2.0066910295E+01   -2.0007176110E+01   -1.9946068128E+01   -1.9883582938E+01
-1.9819717768E+01   -1.9754470552E+01   -1.9687839990E+01   -1.9619825613E+01
-1.9550427853E+01   -1.9479648103E+01   -1.9407488793E+01   -1.9333953450E+01
-1.9259046773E+01   -1.9182774693E+01   -1.9105144441E+01   -1.9026164615E+01
-1.8945845233E+01   -1.8864197796E+01   -1.8781235340E+01   -1.8696972484E+01
-1.8611425474E+01   -1.8524612220E+01   -1.8436552324E+01   -1.8347267107E+01
-1.8256779623E+01   -1.8165114664E+01   -1.8072298759E+01   -1.7978360164E+01
-1.7883328843E+01   -1.7787236433E+01   -1.7690116213E+01   -1.7592003051E+01
-1.7492933352E+01   -1.7392944987E+01   -1.7292077228E+01   -1.7190370665E+01
-1.7087867118E+01   -1.6984609550E+01   -1.6880641967E+01   -1.6776009321E+01
-1.6670757403E+01   -1.6564932741E+01   -1.6458582488E+01   -1.6351754323E+01
-1.6244496335E+01   -1.6136856924E+01   -1.6028884694E+01   -1.5920628349E+01
-1.5812136600E+01   -1.5703458062E+01   -1.5594641170E+01   -1.5485734084E+01
-1.5376784609E+01   -1.5267840115E+01   -1.5158947462E+01   -1.5050152929E+01
-1.4941502147E+01   -1.4833040038E+01   -1.4724810758E+01   -1.4616857642E+01
-1.4509223155E+01   -1.4401948844E+01   -1.4295075299E+01   -1.4188642109E+01
-1.4082687830E+01   -1.3977249948E+01   -1.3872364850E+01   -1.3768067792E+01
-1.3664392879E+01   -1.3561373034E+01   -1.3459039977E+01   -1.3357424205E+01
-1.3256554972E+01   -1.3156460267E+01   -1.3057166803E+01   -1.2958699992E+01
-1.2861083937E+01   -1.2764341410E+01   -1.2668493844E+01   -1.2573561313E+01
-1.2479562522E+01   -1.2386514792E+01   -1.2294434047E+01   -1.2203334801E+01
-1.2113230147E+01   -1.2024131739E+01   -1.1936049784E+01   -1.1848993027E+01
-1.1762968736E+01   -1.1677982694E+01   -1.1594039176E+01   -1.1511140947E+01
-1.1429289237E+01   -1.1348483732E+01   -1.1268722558E+01   -1.1190002266E+01
-1.1112317815E+01   -1.1035662556E+01   -1.0960028216E+01   -1.0885404882E+01
-1.0811780967E+01   -1.0739143249E+01   -1.0667476815E+01   -1.0596764799E+01
-1.0526989106E+01   -1.0458131095E+01   -1.0390172300E+01   -1.0323094984E+01
-1.0256881884E+01   -1.0191516174E+01   -1.0126981502E+01   -1.0063261942E+01
-1.0000341967E+01   -9.9382064264E+00   -9.8768405431E+00   -9.8162299035E+00
-9.7563604594E+00   -9.6972185134E+00   -9.6387907047E+00   -9.5810640032E+00
-9.5240257016E+00   -9.4676634056E+00   -9.4119650259E+00   -9.3569187688E+00
-9.3025131286E+00   -9.2487368793E+00   -9.1955790658E+00   -9.1430289967E+00
-9.0910762359E+00   -9.0397105953E+00   -8.9889221270E+00   -8.9387011161E+00
-8.8890380733E+00   -8.8399237283E+00   -8.7913490225E+00   -8.7433051029E+00
-8.6957833152E+00   -8.6487751980E+00   -8.6022724765E+00   -8.5562670569E+00
-8.5107510207E+00   -8.4657166192E+00   -8.4211562688E+00   -8.3770625455E+00
-8.3334281802E+00   -8.2902460546E+00   -8.2475091964E+00   -8.2052107751E+00
-8.1633440983E+00   -8.1219026077E+00   -8.0808798755E+00   -8.0402696010E+00
-8.0000656070E+00   -7.9602618372E+00   -7.9208523525E+00   -7.8818313287E+00
-7.8431930532E+00   -7.8049319231E+00   -7.7670424417E+00   -7.7295192169E+00
-7.6923569586E+00   -7.6555504761E+00   -7.6190946766E+00   -7.5829845624E+00
-7.5472152295E+00   -7.5117818651E+00   -7.4766797460E+00   -7.4419042368E+00
-7.4074507878E+00   -7.3733149332E+00   -7.3394922897E+00   -7.3059785547E+00
-7.2727695041E+00   -7.2398609915E+00   -7.2072489458E+00   -7.1749293700E+00
-7.1428983397E+00   -7.1111520010E+00   -7.0796865697E+00   -7.0484983293E+00
-7.0175836294E+00   -6.9869388848E+00   -6.9565605736E+00   -6.9264452356E+00
-6.8965894715E+00   -6.8669899411E+00   -6.8376433620E+00   -6.8085465084E+00
-6.7796962096E+00   -6.7510893490E+00   -6.7227228627E+00   -6.6945937383E+00
-6.6666990137E+00   -6.6390357761E+00   -6.6116011607E+00   -6.5843923500E+00
-6.5574065721E+00   -6.5306411002E+00   -6.5040932518E+00   -6.4777603870E+00
-6.4516399083E+00   -6.4257292595E+00   -6.4000259246E+00   -6.3745274274E+00
-6.3492313303E+00   -6.3241352340E+00   -6.2992367761E+00   -6.2745336313E+00
-6.2500235097E+00   -6.2257041570E+00   -6.2015733531E+00   -6.1776289123E+00
-6.1538686819E+00   -6.1302905422E+00   -6.1068924054E+00   -6.0836722156E+00
-6.0606279478E+00   -6.0377576076E+00   -6.0150592306E+00   -5.9925308819E+00
-5.9701706556E+00   -5.9479766743E+00   -5.9259470885E+00   -5.9040800763E+00
-5.8823738427E+00   -5.8608266195E+00   -5.8394366646E+00   -5.8182022618E+00
-5.7971217184E+00   -5.7761933671E+00   -5.7554155644E+00   -5.7347866946E+00
-5.7143051659E+00   -5.6939694097E+00   -5.6737778787E+00   -5.6537290450E+00
-5.6338214024E+00   -5.6140534650E+00   -5.5944237676E+00   -5.5749308649E+00
-5.5555733315E+00   -5.5363497620E+00   -5.5172587706E+00   -5.4982989907E+00
-5.4794690741E+00   -5.4607676912E+00   -5.4421935303E+00   -5.4237452976E+00
-5.4054217168E+00   -5.3872215287E+00   -5.3691434912E+00   -5.3511863785E+00
-5.3333489814E+00   -5.3156301067E+00   -5.2980285770E+00   -5.2805432304E+00
-5.2631729203E+00   -5.2459165153E+00   -5.2287728986E+00   -5.2117409680E+00
-5.1948196356E+00   -5.1780078276E+00   -5.1613044841E+00   -5.1447085588E+00
-5.1282190188E+00   -5.1118348444E+00   -5.0955550289E+00   -5.0793785784E+00
-5.0633045116E+00   -5.0473318595E+00   -5.0314596653E+00   -5.0156869844E+00
-5.0000128836E+00   -4.9844364418E+00   -4.9689567490E+00   -4.9535729066E+00
-4.9382840271E+00   -4.9230892339E+00   -4.9079876612E+00   -4.8929784537E+00
-4.8780607665E+00   -4.8632337652E+00   -4.8484966253E+00   -4.8338485324E+00
-4.8192886817E+00   -4.8048162784E+00   -4.7904305369E+00   -4.7761306811E+00
-4.7619159442E+00   -4.7477855685E+00   -4.7337388051E+00   -4.7197749142E+00
-4.7058931644E+00   -4.6920928332E+00   -4.6783732063E+00   -4.6647335778E+00
-4.6511732501E+00   -4.6376915336E+00   -4.6242877467E+00   -4.6109612156E+00
-4.5977112743E+00   -4.5845372644E+00   -4.5714385352E+00   -4.5584144431E+00
-4.5454643520E+00   -4.5325876331E+00   -4.5197836645E+00   -4.5070518314E+00
-4.4943915260E+00   -4.4818021471E+00   -4.4692831004E+00   -4.4568337981E+00
-4.4444536590E+00   -4.4321421085E+00   -4.4198985779E+00   -4.4077225053E+00
-4.3956133346E+00   -4.3835705159E+00   -4.3715935053E+00   -4.3596817650E+00
-4.3478347627E+00   -4.3360519722E+00   -4.3243328729E+00   -4.3126769496E+00
-4.3010836929E+00   -4.2895525989E+00   -4.2780831688E+00   -4.2666749093E+00
-4.2553273323E+00   -4.2440399551E+00   -4.2328122997E+00   -4.2216438935E+00
-4.2105342687E+00   -4.1994829624E+00   -4.1884895167E+00   -4.1775534783E+00
-4.1666743987E+00   -4.1558518340E+00   -4.1450853452E+00   -4.1343744973E+00
-4.1237188603E+00   -4.1131180083E+00   -4.1025715200E+00   -4.0920789781E+00
-4.0816399698E+00   -4.0712540865E+00   -4.0609209236E+00   -4.0506400808E+00
-4.0404111617E+00   -4.0302337739E+00   -4.0201075290E+00   -4.0100320424E+00
-4.0000069335E+00   -3.9900318253E+00   -3.9801063447E+00   -3.9702301223E+00
-3.9604027923E+00   -3.9506239925E+00   -3.9408933644E+00   -3.9312105528E+00
-3.9215752061E+00   -3.9119869763E+00   -3.9024455185E+00   -3.8929504913E+00
-3.8835015566E+00   -3.8740983797E+00   -3.8647406290E+00   -3.8554279760E+00
-3.8461600955E+00   -3.8369366655E+00   -3.8277573668E+00   -3.8186218836E+00
-3.8095299029E+00   -3.8004811146E+00   -3.7914752117E+00   -3.7825118901E+00
-3.7735908484E+00   -3.7647117883E+00   -3.7558744140E+00   -3.7470784327E+00
-3.7383235543E+00   -3.7296094913E+00   -3.7209359590E+00   -3.7123026752E+00
-3.7037093604E+00   -3.6951557378E+00   -3.6866415328E+00   -3.6781664738E+00
-3.6697302913E+00   -3.6613327185E+00   -3.6529734909E+00   -3.6446523464E+00
-3.6363690255E+00   -3.6281232707E+00   -3.6199148271E+00   -3.6117434421E+00
-3.6036088653E+00   -3.5955108484E+00   -3.5874491457E+00   -3.5794235133E+00
-3.5714337097E+00   -3.5634794955E+00   -3.5555606335E+00   -3.5476768885E+00
-3.5398280275E+00   -3.5320138193E+00   -3.5242340351E+00   -3.5164884478E+00
-3.5087768324E+00   -3.5010989660E+00   -3.4934546276E+00   -3.4858435978E+00
-3.4782656596E+00   -3.4707205976E+00   -3.4632081982E+00   -3.4557282499E+00
-3.4482805429E+00   -3.4408648690E+00   -3.4334810222E+00   -3.4261287980E+00
-3.4188079935E+00   -3.4115184080E+00   -3.4042598420E+00   -3.3970320980E+00
-3.3898349802E+00   -3.3826682942E+00   -3.3755318474E+00   -3.3684254489E+00
-3.3613489094E+00   -3.3543020409E+00   -3.3472846573E+00   -3.3402965738E+00
-3.3333376075E+00   -3.3264075767E+00   -3.3195063012E+00   -3.3126336025E+00
-3.3057893035E+00   -3.2989732284E+00   -3.2921852031E+00   -3.2854250547E+00
-3.2786926120E+00   -3.2719877048E+00   -3.2653101647E+00   -3.2586598244E+00
-3.2520365181E+00   -3.2454400812E+00   -3.2388703506E+00   -3.2323271644E+00
-3.2258103621E+00   -3.2193197843E+00   -3.2128552733E+00   -3.2064166721E+00
-3.2000038254E+00   -3.1936165790E+00   -3.1872547798E+00   -3.1809182760E+00
-3.1746069172E+00   -3.1683205539E+00   -3.1620590380E+00   -3.1558222223E+00