<UPF version="2.0.1">
<PP_INFO>

This pseudopotential file has been produced using the code
ONCVPSP  (Optimized Norm-Conservinng Vanderbilt PSeudopotential)
scalar-relativistic version 3.3.0 08/16/2017 by D. R. Hamann
The code is available through a link at URL www.mat-simresearch.com.
Documentation with the package provides a full discription of the
input data below.


While it is not required under the terms of the GNU GPL, it is
suggested that you cite D. R. Hamann, Phys. Rev. B 88, 085117 (2013)
in any publication using these pseudopotentials.

<PP_INPUTFILE>
# ATOM AND REFERENCE CONFIGURATION
# atsym  z   nc   nv     iexc    psfile
He  2.00    0    1   -1012      upf
#
#   n    l    f        energy (Ha)
1    0    2.00
#
# PSEUDOPOTENTIAL AND OPTIMIZATION
# lmax
1
#
#   l,   rc,      ep,       ncon, nbas, qcut
0   1.25000  -0.57027    4    8   9.40000
1   1.13000   0.05000    4    7   9.40000
#
# LOCAL POTENTIAL
# lloc, lpopt,  rc(5),   dvloc0
4    5   1.00000      0.00000
#
# VANDERBILT-KLEINMAN-BYLANDER PROJECTORs
# l, nproj, debl
0    2   1.00000
1    1   1.00000
#
# MODEL CORE CHARGE
# icmod, fcfact, rcfact
0   0.00000   0.00000
#
# LOG DERIVATIVE ANALYSIS
# epsh1, epsh2, depsh
-12.00   12.00    0.02
#
# OUTPUT GRID
# rlmax, drl
6.00    0.01
#
# TEST CONFIGURATIONS
# ncnf
0
# nvcnf
#   n    l    f
</PP_INPUTFILE>
</PP_INFO>
<!--                               -->
<!-- END OF HUMAN READABLE SECTION -->
<!--                               -->
<PP_HEADER
generated="Generated using ONCVPSP code by D. R. Hamann"
author="anonymous"
date="180309"
comment=""
element="He"
pseudo_type="NC"
relativistic="scalar"
is_ultrasoft="F"
is_paw="F"
is_coulomb="F"
has_so="F"
has_wfc="F"
has_gipaw="F"
core_correction="F"
functional="SLA  PW   NOGX NOGC"
z_valence="    2.00"
total_psenergy="  -5.60857864777E+00"
rho_cutoff="   7.31000000000E+00"
l_max="1"
l_local="-1"
mesh_size="   732"
number_of_wfc="1"
number_of_proj="3"/>
<PP_MESH>
<PP_R type="real"  size=" 732" columns="8">
0.0000    0.0100    0.0200    0.0300    0.0400    0.0500    0.0600    0.0700
0.0800    0.0900    0.1000    0.1100    0.1200    0.1300    0.1400    0.1500
0.1600    0.1700    0.1800    0.1900    0.2000    0.2100    0.2200    0.2300
0.2400    0.2500    0.2600    0.2700    0.2800    0.2900    0.3000    0.3100
0.3200    0.3300    0.3400    0.3500    0.3600    0.3700    0.3800    0.3900
0.4000    0.4100    0.4200    0.4300    0.4400    0.4500    0.4600    0.4700
0.4800    0.4900    0.5000    0.5100    0.5200    0.5300    0.5400    0.5500
0.5600    0.5700    0.5800    0.5900    0.6000    0.6100    0.6200    0.6300
0.6400    0.6500    0.6600    0.6700    0.6800    0.6900    0.7000    0.7100
0.7200    0.7300    0.7400    0.7500    0.7600    0.7700    0.7800    0.7900
0.8000    0.8100    0.8200    0.8300    0.8400    0.8500    0.8600    0.8700
0.8800    0.8900    0.9000    0.9100    0.9200    0.9300    0.9400    0.9500
0.9600    0.9700    0.9800    0.9900    1.0000    1.0100    1.0200    1.0300
1.0400    1.0500    1.0600    1.0700    1.0800    1.0900    1.1000    1.1100
1.1200    1.1300    1.1400    1.1500    1.1600    1.1700    1.1800    1.1900
1.2000    1.2100    1.2200    1.2300    1.2400    1.2500    1.2600    1.2700
1.2800    1.2900    1.3000    1.3100    1.3200    1.3300    1.3400    1.3500
1.3600    1.3700    1.3800    1.3900    1.4000    1.4100    1.4200    1.4300
1.4400    1.4500    1.4600    1.4700    1.4800    1.4900    1.5000    1.5100
1.5200    1.5300    1.5400    1.5500    1.5600    1.5700    1.5800    1.5900
1.6000    1.6100    1.6200    1.6300    1.6400    1.6500    1.6600    1.6700
1.6800    1.6900    1.7000    1.7100    1.7200    1.7300    1.7400    1.7500
1.7600    1.7700    1.7800    1.7900    1.8000    1.8100    1.8200    1.8300
1.8400    1.8500    1.8600    1.8700    1.8800    1.8900    1.9000    1.9100
1.9200    1.9300    1.9400    1.9500    1.9600    1.9700    1.9800    1.9900
2.0000    2.0100    2.0200    2.0300    2.0400    2.0500    2.0600    2.0700
2.0800    2.0900    2.1000    2.1100    2.1200    2.1300    2.1400    2.1500
2.1600    2.1700    2.1800    2.1900    2.2000    2.2100    2.2200    2.2300
2.2400    2.2500    2.2600    2.2700    2.2800    2.2900    2.3000    2.3100
2.3200    2.3300    2.3400    2.3500    2.3600    2.3700    2.3800    2.3900
2.4000    2.4100    2.4200    2.4300    2.4400    2.4500    2.4600    2.4700
2.4800    2.4900    2.5000    2.5100    2.5200    2.5300    2.5400    2.5500
2.5600    2.5700    2.5800    2.5900    2.6000    2.6100    2.6200    2.6300
2.6400    2.6500    2.6600    2.6700    2.6800    2.6900    2.7000    2.7100
2.7200    2.7300    2.7400    2.7500    2.7600    2.7700    2.7800    2.7900
2.8000    2.8100    2.8200    2.8300    2.8400    2.8500    2.8600    2.8700
2.8800    2.8900    2.9000    2.9100    2.9200    2.9300    2.9400    2.9500
2.9600    2.9700    2.9800    2.9900    3.0000    3.0100    3.0200    3.0300
3.0400    3.0500    3.0600    3.0700    3.0800    3.0900    3.1000    3.1100
3.1200    3.1300    3.1400    3.1500    3.1600    3.1700    3.1800    3.1900
3.2000    3.2100    3.2200    3.2300    3.2400    3.2500    3.2600    3.2700
3.2800    3.2900    3.3000    3.3100    3.3200    3.3300    3.3400    3.3500
3.3600    3.3700    3.3800    3.3900    3.4000    3.4100    3.4200    3.4300
3.4400    3.4500    3.4600    3.4700    3.4800    3.4900    3.5000    3.5100
3.5200    3.5300    3.5400    3.5500    3.5600    3.5700    3.5800    3.5900
3.6000    3.6100    3.6200    3.6300    3.6400    3.6500    3.6600    3.6700
3.6800    3.6900    3.7000    3.7100    3.7200    3.7300    3.7400    3.7500
3.7600    3.7700    3.7800    3.7900    3.8000    3.8100    3.8200    3.8300
3.8400    3.8500    3.8600    3.8700    3.8800    3.8900    3.9000    3.9100
3.9200    3.9300    3.9400    3.9500    3.9600    3.9700    3.9800    3.9900
4.0000    4.0100    4.0200    4.0300    4.0400    4.0500    4.0600    4.0700
4.0800    4.0900    4.1000    4.1100    4.1200    4.1300    4.1400    4.1500
4.1600    4.1700    4.1800    4.1900    4.2000    4.2100    4.2200    4.2300
4.2400    4.2500    4.2600    4.2700    4.2800    4.2900    4.3000    4.3100
4.3200    4.3300    4.3400    4.3500    4.3600    4.3700    4.3800    4.3900
4.4000    4.4100    4.4200    4.4300    4.4400    4.4500    4.4600    4.4700
4.4800    4.4900    4.5000    4.5100    4.5200    4.5300    4.5400    4.5500
4.5600    4.5700    4.5800    4.5900    4.6000    4.6100    4.6200    4.6300
4.6400    4.6500    4.6600    4.6700    4.6800    4.6900    4.7000    4.7100
4.7200    4.7300    4.7400    4.7500    4.7600    4.7700    4.7800    4.7900
4.8000    4.8100    4.8200    4.8300    4.8400    4.8500    4.8600    4.8700
4.8800    4.8900    4.9000    4.9100    4.9200    4.9300    4.9400    4.9500
4.9600    4.9700    4.9800    4.9900    5.0000    5.0100    5.0200    5.0300
5.0400    5.0500    5.0600    5.0700    5.0800    5.0900    5.1000    5.1100
5.1200    5.1300    5.1400    5.1500    5.1600    5.1700    5.1800    5.1900
5.2000    5.2100    5.2200    5.2300    5.2400    5.2500    5.2600    5.2700
5.2800    5.2900    5.3000    5.3100    5.3200    5.3300    5.3400    5.3500
5.3600    5.3700    5.3800    5.3900    5.4000    5.4100    5.4200    5.4300
5.4400    5.4500    5.4600    5.4700    5.4800    5.4900    5.5000    5.5100
5.5200    5.5300    5.5400    5.5500    5.5600    5.5700    5.5800    5.5900
5.6000    5.6100    5.6200    5.6300    5.6400    5.6500    5.6600    5.6700
5.6800    5.6900    5.7000    5.7100    5.7200    5.7300    5.7400    5.7500
5.7600    5.7700    5.7800    5.7900    5.8000    5.8100    5.8200    5.8300
5.8400    5.8500    5.8600    5.8700    5.8800    5.8900    5.9000    5.9100
5.9200    5.9300    5.9400    5.9500    5.9600    5.9700    5.9800    5.9900
6.0000    6.0100    6.0200    6.0300    6.0400    6.0500    6.0600    6.0700
6.0800    6.0900    6.1000    6.1100    6.1200    6.1300    6.1400    6.1500
6.1600    6.1700    6.1800    6.1900    6.2000    6.2100    6.2200    6.2300
6.2400    6.2500    6.2600    6.2700    6.2800    6.2900    6.3000    6.3100
6.3200    6.3300    6.3400    6.3500    6.3600    6.3700    6.3800    6.3900
6.4000    6.4100    6.4200    6.4300    6.4400    6.4500    6.4600    6.4700
6.4800    6.4900    6.5000    6.5100    6.5200    6.5300    6.5400    6.5500
6.5600    6.5700    6.5800    6.5900    6.6000    6.6100    6.6200    6.6300
6.6400    6.6500    6.6600    6.6700    6.6800    6.6900    6.7000    6.7100
6.7200    6.7300    6.7400    6.7500    6.7600    6.7700    6.7800    6.7900
6.8000    6.8100    6.8200    6.8300    6.8400    6.8500    6.8600    6.8700
6.8800    6.8900    6.9000    6.9100    6.9200    6.9300    6.9400    6.9500
6.9600    6.9700    6.9800    6.9900    7.0000    7.0100    7.0200    7.0300
7.0400    7.0500    7.0600    7.0700    7.0800    7.0900    7.1000    7.1100
7.1200    7.1300    7.1400    7.1500    7.1600    7.1700    7.1800    7.1900
7.2000    7.2100    7.2200    7.2300    7.2400    7.2500    7.2600    7.2700
7.2800    7.2900    7.3000    7.3100
</PP_R>
<PP_RAB type="real"  size=" 732" columns="8">
0.0100    0.0100    0.0100    0.0100    0.0100    0.0100    0.0100    0.0100
0.0100    0.0100    0.0100    0.0100    0.0100    0.0100    0.0100    0.0100
0.0100    0.0100    0.0100    0.0100    0.0100    0.0100    0.0100    0.0100
0.0100    0.0100    0.0100    0.0100    0.0100    0.0100    0.0100    0.0100
0.0100    0.0100    0.0100    0.0100    0.0100    0.0100    0.0100    0.0100
0.0100    0.0100    0.0100    0.0100    0.0100    0.0100    0.0100    0.0100
0.0100    0.0100    0.0100    0.0100    0.0100    0.0100    0.0100    0.0100
0.0100    0.0100    0.0100    0.0100    0.0100    0.0100    0.0100    0.0100
0.0100    0.0100    0.0100    0.0100    0.0100    0.0100    0.0100    0.0100
0.0100    0.0100    0.0100    0.0100    0.0100    0.0100    0.0100    0.0100
0.0100    0.0100    0.0100    0.0100    0.0100    0.0100    0.0100    0.0100
0.0100    0.0100    0.0100    0.0100    0.0100    0.0100    0.0100    0.0100
0.0100    0.0100    0.0100    0.0100    0.0100    0.0100    0.0100    0.0100
0.0100    0.0100    0.0100    0.0100    0.0100    0.0100    0.0100    0.0100
0.0100    0.0100    0.0100    0.0100    0.0100    0.0100    0.0100    0.0100
0.0100    0.0100    0.0100    0.0100    0.0100    0.0100    0.0100    0.0100
0.0100    0.0100    0.0100    0.0100    0.0100    0.0100    0.0100    0.0100
0.0100    0.0100    0.0100    0.0100    0.0100    0.0100    0.0100    0.0100
0.0100    0.0100    0.0100    0.0100    0.0100    0.0100    0.0100    0.0100
0.0100    0.0100    0.0100    0.0100    0.0100    0.0100    0.0100    0.0100
0.0100    0.0100    0.0100    0.0100    0.0100    0.0100    0.0100    0.0100
0.0100    0.0100    0.0100    0.0100    0.0100    0.0100    0.0100    0.0100
0.0100    0.0100    0.0100    0.0100    0.0100    0.0100    0.0100    0.0100
0.0100    0.0100    0.0100    0.0100    0.0100    0.0100    0.0100    0.0100
0.0100    0.0100    0.0100    0.0100    0.0100    0.0100    0.0100    0.0100
0.0100    0.0100    0.0100    0.0100    0.0100    0.0100    0.0100    0.0100
0.0100    0.0100    0.0100    0.0100    0.0100    0.0100    0.0100    0.0100
0.0100    0.0100    0.0100    0.0100    0.0100    0.0100    0.0100    0.0100
0.0100    0.0100    0.0100    0.0100    0.0100    0.0100    0.0100    0.0100
0.0100    0.0100    0.0100    0.0100    0.0100    0.0100    0.0100    0.0100
0.0100    0.0100    0.0100    0.0100    0.0100    0.0100    0.0100    0.0100
0.0100    0.0100    0.0100    0.0100    0.0100    0.0100    0.0100    0.0100
0.0100    0.0100    0.0100    0.0100    0.0100    0.0100    0.0100    0.0100
0.0100    0.0100    0.0100    0.0100    0.0100    0.0100    0.0100    0.0100
0.0100    0.0100    0.0100    0.0100    0.0100    0.0100    0.0100    0.0100
0.0100    0.0100    0.0100    0.0100    0.0100    0.0100    0.0100    0.0100
0.0100    0.0100    0.0100    0.0100    0.0100    0.0100    0.0100    0.0100
0.0100    0.0100    0.0100    0.0100    0.0100    0.0100    0.0100    0.0100
0.0100    0.0100    0.0100    0.0100    0.0100    0.0100    0.0100    0.0100
0.0100    0.0100    0.0100    0.0100    0.0100    0.0100    0.0100    0.0100
0.0100    0.0100    0.0100    0.0100    0.0100    0.0100    0.0100    0.0100
0.0100    0.0100    0.0100    0.0100    0.0100    0.0100    0.0100    0.0100
0.0100    0.0100    0.0100    0.0100    0.0100    0.0100    0.0100    0.0100
0.0100    0.0100    0.0100    0.0100    0.0100    0.0100    0.0100    0.0100
0.0100    0.0100    0.0100    0.0100    0.0100    0.0100    0.0100    0.0100
0.0100    0.0100    0.0100    0.0100    0.0100    0.0100    0.0100    0.0100
0.0100    0.0100    0.0100    0.0100    0.0100    0.0100    0.0100    0.0100
0.0100    0.0100    0.0100    0.0100    0.0100    0.0100    0.0100    0.0100
0.0100    0.0100    0.0100    0.0100    0.0100    0.0100    0.0100    0.0100
0.0100    0.0100    0.0100    0.0100    0.0100    0.0100    0.0100    0.0100
0.0100    0.0100    0.0100    0.0100    0.0100    0.0100    0.0100    0.0100
0.0100    0.0100    0.0100    0.0100    0.0100    0.0100    0.0100    0.0100
0.0100    0.0100    0.0100    0.0100    0.0100    0.0100    0.0100    0.0100
0.0100    0.0100    0.0100    0.0100    0.0100    0.0100    0.0100    0.0100
0.0100    0.0100    0.0100    0.0100    0.0100    0.0100    0.0100    0.0100
0.0100    0.0100    0.0100    0.0100    0.0100    0.0100    0.0100    0.0100
0.0100    0.0100    0.0100    0.0100    0.0100    0.0100    0.0100    0.0100
0.0100    0.0100    0.0100    0.0100    0.0100    0.0100    0.0100    0.0100
0.0100    0.0100    0.0100    0.0100    0.0100    0.0100    0.0100    0.0100
0.0100    0.0100    0.0100    0.0100    0.0100    0.0100    0.0100    0.0100
0.0100    0.0100    0.0100    0.0100    0.0100    0.0100    0.0100    0.0100
0.0100    0.0100    0.0100    0.0100    0.0100    0.0100    0.0100    0.0100
0.0100    0.0100    0.0100    0.0100    0.0100    0.0100    0.0100    0.0100
0.0100    0.0100    0.0100    0.0100    0.0100    0.0100    0.0100    0.0100
0.0100    0.0100    0.0100    0.0100    0.0100    0.0100    0.0100    0.0100
0.0100    0.0100    0.0100    0.0100    0.0100    0.0100    0.0100    0.0100
0.0100    0.0100    0.0100    0.0100    0.0100    0.0100    0.0100    0.0100
0.0100    0.0100    0.0100    0.0100    0.0100    0.0100    0.0100    0.0100
0.0100    0.0100    0.0100    0.0100    0.0100    0.0100    0.0100    0.0100
0.0100    0.0100    0.0100    0.0100    0.0100    0.0100    0.0100    0.0100
0.0100    0.0100    0.0100    0.0100    0.0100    0.0100    0.0100    0.0100
0.0100    0.0100    0.0100    0.0100    0.0100    0.0100    0.0100    0.0100
0.0100    0.0100    0.0100    0.0100    0.0100    0.0100    0.0100    0.0100
0.0100    0.0100    0.0100    0.0100    0.0100    0.0100    0.0100    0.0100
0.0100    0.0100    0.0100    0.0100    0.0100    0.0100    0.0100    0.0100
0.0100    0.0100    0.0100    0.0100    0.0100    0.0100    0.0100    0.0100
0.0100    0.0100    0.0100    0.0100    0.0100    0.0100    0.0100    0.0100
0.0100    0.0100    0.0100    0.0100    0.0100    0.0100    0.0100    0.0100
0.0100    0.0100    0.0100    0.0100    0.0100    0.0100    0.0100    0.0100
0.0100    0.0100    0.0100    0.0100    0.0100    0.0100    0.0100    0.0100
0.0100    0.0100    0.0100    0.0100    0.0100    0.0100    0.0100    0.0100
0.0100    0.0100    0.0100    0.0100    0.0100    0.0100    0.0100    0.0100
0.0100    0.0100    0.0100    0.0100    0.0100    0.0100    0.0100    0.0100
0.0100    0.0100    0.0100    0.0100    0.0100    0.0100    0.0100    0.0100
0.0100    0.0100    0.0100    0.0100    0.0100    0.0100    0.0100    0.0100
0.0100    0.0100    0.0100    0.0100    0.0100    0.0100    0.0100    0.0100
0.0100    0.0100    0.0100    0.0100    0.0100    0.0100    0.0100    0.0100
0.0100    0.0100    0.0100    0.0100    0.0100    0.0100    0.0100    0.0100
0.0100    0.0100    0.0100    0.0100    0.0100    0.0100    0.0100    0.0100
0.0100    0.0100    0.0100    0.0100    0.0100    0.0100    0.0100    0.0100
0.0100    0.0100    0.0100    0.0100    0.0100    0.0100    0.0100    0.0100
0.0100    0.0100    0.0100    0.0100
</PP_RAB>
</PP_MESH>
<PP_LOCAL type="real"  size=" 732" columns="4">
-8.7547179248E+00   -8.7537705672E+00   -8.7509294292E+00   -8.7461974458E+00
-8.7395794890E+00   -8.7310823605E+00   -8.7207147763E+00   -8.7084873458E+00
-8.6944125463E+00   -8.6785046930E+00   -8.6607799049E+00   -8.6412560667E+00
-8.6199527866E+00   -8.5968913513E+00   -8.5720946772E+00   -8.5455872579E+00
-8.5173951103E+00   -8.4875457170E+00   -8.4560679671E+00   -8.4229920944E+00
-8.3883496148E+00   -8.3521732618E+00   -8.3144969205E+00   -8.2753555622E+00
-8.2347851769E+00   -8.1928227069E+00   -8.1495059794E+00   -8.1048736406E+00
-8.0589650891E+00   -8.0118204112E+00   -7.9634803169E+00   -7.9139860763E+00
-7.8633794592E+00   -7.8117026745E+00   -7.7589983124E+00   -7.7053092880E+00
-7.6506787873E+00   -7.5951502146E+00   -7.5387671425E+00   -7.4815732639E+00
-7.4236123460E+00   -7.3649281867E+00   -7.3055645729E+00   -7.2455652408E+00
-7.1849738386E+00   -7.1238338909E+00   -7.0621887645E+00   -7.0000816370E+00
-6.9375554657E+00   -6.8746529590E+00   -6.8114165487E+00   -6.7478883636E+00
-6.6841102036E+00   -6.6201235158E+00   -6.5559693701E+00   -6.4916884361E+00
-6.4273209598E+00   -6.3629067412E+00   -6.2984851112E+00   -6.2340949091E+00
-6.1697744589E+00   -6.1055615462E+00   -6.0414933939E+00   -5.9776066372E+00
-5.9139372984E+00   -5.8505207597E+00   -5.7873917362E+00   -5.7245842465E+00
-5.6621315835E+00   -5.6000662821E+00   -5.5384200875E+00   -5.4772239205E+00
-5.4165078419E+00   -5.3563010155E+00   -5.2966316697E+00   -5.2375270563E+00
-5.1790134096E+00   -5.1211159019E+00   -5.0638585987E+00   -5.0072644118E+00
-4.9513550507E+00   -4.8961509722E+00   -4.8416713284E+00   -4.7879339137E+00
-4.7349551090E+00   -4.6827498255E+00   -4.6313314455E+00   -4.5807117634E+00
-4.5309009233E+00   -4.4819073565E+00   -4.4337377164E+00   -4.3863968129E+00
-4.3398875446E+00   -4.2942108295E+00   -4.2493655353E+00   -4.2053484070E+00
-4.1621539941E+00   -4.1197745762E+00   -4.0782000865E+00   -4.0374180343E+00
-3.9974134572E+00   -3.9581687167E+00   -3.9196639556E+00   -3.8818787253E+00
-3.8447934285E+00   -3.8083893193E+00   -3.7726484280E+00   -3.7375535230E+00
-3.7030880663E+00   -3.6692361676E+00   -3.6359825438E+00   -3.6033124777E+00
-3.5712117815E+00   -3.5396667597E+00   -3.5086641759E+00   -3.4781912202E+00
-3.4482354787E+00   -3.4187849056E+00   -3.3898277959E+00   -3.3613527608E+00
-3.3333487046E+00   -3.3058048031E+00   -3.2787104843E+00   -3.2520554102E+00
-3.2258294610E+00   -3.2000227201E+00   -3.1746254613E+00   -3.1496281425E+00
-3.1250214240E+00   -3.1007962057E+00   -3.0769436862E+00   -3.0534553334E+00
-3.0303228695E+00   -3.0075382669E+00   -2.9850937375E+00   -2.9629817240E+00
-2.9411948915E+00   -2.9197261191E+00   -2.8985684923E+00   -2.8777152957E+00
-2.8571600056E+00   -2.8368962836E+00   -2.8169179697E+00   -2.7972190762E+00
-2.7777937818E+00   -2.7586364257E+00   -2.7397415023E+00   -2.7211036558E+00
-2.7027176749E+00   -2.6845784887E+00   -2.6666811611E+00   -2.6490208868E+00
-2.6315929872E+00   -2.6143929059E+00   -2.5974162047E+00   -2.5806585601E+00
-2.5641157595E+00   -2.5477836975E+00   -2.5316583726E+00   -2.5157358841E+00
-2.5000124288E+00   -2.4844842980E+00   -2.4691478744E+00   -2.4539996297E+00
-2.4390361216E+00   -2.4242539911E+00   -2.4096499604E+00   -2.3952208299E+00
-2.3809634764E+00   -2.3668748506E+00   -2.3529519749E+00   -2.3391919414E+00
-2.3255919097E+00   -2.3121491053E+00   -2.2988608172E+00   -2.2857243967E+00
-2.2727372550E+00   -2.2598968619E+00   -2.2472007441E+00   -2.2346464837E+00
-2.2222317162E+00   -2.2099541295E+00   -2.1978114626E+00   -2.1858015034E+00
-2.1739220884E+00   -2.1621711005E+00   -2.1505464682E+00   -2.1390461646E+00
-2.1276682056E+00   -2.1164106492E+00   -2.1052715942E+00   -2.0942491795E+00
-2.0833415824E+00   -2.0725470182E+00   -2.0618637390E+00   -2.0512900327E+00
-2.0408242220E+00   -2.0304646641E+00   -2.0202097488E+00   -2.0100578987E+00
-2.0000075678E+00   -1.9900572408E+00   -1.9802054326E+00   -1.9704506871E+00
-1.9607915770E+00   -1.9512267027E+00   -1.9417546919E+00   -1.9323741986E+00
-1.9230839029E+00   -1.9138825101E+00   -1.9047687502E+00   -1.8957413771E+00
-1.8867991684E+00   -1.8779409245E+00   -1.8691654685E+00   -1.8604716450E+00
-1.8518583204E+00   -1.8433243817E+00   -1.8348687364E+00   -1.8264903120E+00
-1.8181880555E+00   -1.8099609329E+00   -1.8018079290E+00   -1.7937280465E+00
-1.7857203062E+00   -1.7777837461E+00   -1.7699174214E+00   -1.7621204039E+00
-1.7543917816E+00   -1.7467306584E+00   -1.7391361541E+00   -1.7316074033E+00
-1.7241435558E+00   -1.7167437760E+00   -1.7094072424E+00   -1.7021331477E+00
-1.6949206981E+00   -1.6877691133E+00   -1.6806776262E+00   -1.6736454822E+00
-1.6666719397E+00   -1.6597562691E+00   -1.6528977530E+00   -1.6460956859E+00
-1.6393493736E+00   -1.6326581334E+00   -1.6260212938E+00   -1.6194381939E+00
-1.6129081838E+00   -1.6064306237E+00   -1.6000048843E+00   -1.5936303462E+00
-1.5873063998E+00   -1.5810324452E+00   -1.5748078920E+00   -1.5686321590E+00
-1.5625046741E+00   -1.5564248740E+00   -1.5503922043E+00   -1.5444061191E+00
-1.5384660808E+00   -1.5325715602E+00   -1.5267220360E+00   -1.5209169951E+00
-1.5151559318E+00   -1.5094383484E+00   -1.5037637545E+00   -1.4981316670E+00
-1.4925416101E+00   -1.4869931150E+00   -1.4814857201E+00   -1.4760189702E+00
-1.4705924171E+00   -1.4652056191E+00   -1.4598581409E+00   -1.4545495535E+00
-1.4492794342E+00   -1.4440473664E+00   -1.4388529395E+00   -1.4336957487E+00
-1.4285753951E+00   -1.4234914853E+00   -1.4184436317E+00   -1.4134314520E+00
-1.4084545695E+00   -1.4035126125E+00   -1.3986052147E+00   -1.3937320149E+00
-1.3888926569E+00   -1.3840867892E+00   -1.3793140655E+00   -1.3745741441E+00
-1.3698666880E+00   -1.3651913648E+00   -1.3605478465E+00   -1.3559358098E+00
-1.3513549355E+00   -1.3468049089E+00   -1.3422854194E+00   -1.3377961607E+00
-1.3333368305E+00   -1.3289071303E+00   -1.3245067660E+00   -1.3201354471E+00
-1.3157928868E+00   -1.3114788024E+00   -1.3071929147E+00   -1.3029349481E+00
-1.2987046307E+00   -1.2945016940E+00   -1.2903258730E+00   -1.2861769063E+00
-1.2820545355E+00   -1.2779585058E+00   -1.2738885655E+00   -1.2698444661E+00
-1.2658259623E+00   -1.2618328119E+00   -1.2578647756E+00   -1.2539216174E+00
-1.2500031039E+00   -1.2461090048E+00   -1.2422390928E+00   -1.2383931430E+00
-1.2345709337E+00   -1.2307722458E+00   -1.2269968626E+00   -1.2232445706E+00
-1.2195151584E+00   -1.2158084174E+00   -1.2121241415E+00   -1.2084621271E+00
-1.2048221731E+00   -1.2012040807E+00   -1.1976076535E+00   -1.1940326976E+00
-1.1904790212E+00   -1.1869464348E+00   -1.1834347514E+00   -1.1799437858E+00
-1.1764733554E+00   -1.1730232794E+00   -1.1695933793E+00   -1.1661834787E+00
-1.1627934031E+00   -1.1594229801E+00   -1.1560720393E+00   -1.1527404123E+00
-1.1494279326E+00   -1.1461344356E+00   -1.1428597586E+00   -1.1396037408E+00
-1.1363662231E+00   -1.1331470482E+00   -1.1299460608E+00   -1.1267631071E+00
-1.1235980353E+00   -1.1204506949E+00   -1.1173209374E+00   -1.1142086159E+00
-1.1111135851E+00   -1.1080357013E+00   -1.1049748224E+00   -1.1019308079E+00
-1.0989035187E+00   -1.0958928174E+00   -1.0928985681E+00   -1.0899206361E+00
-1.0869588886E+00   -1.0840131940E+00   -1.0810834220E+00   -1.0781694440E+00
-1.0752711325E+00   -1.0723883616E+00   -1.0695210065E+00   -1.0666689440E+00
-1.0638320521E+00   -1.0610102100E+00   -1.0582032983E+00   -1.0554111989E+00
-1.0526337946E+00   -1.0498709700E+00   -1.0471226104E+00   -1.0443886025E+00
-1.0416688343E+00   -1.0389631947E+00   -1.0362715740E+00   -1.0335938636E+00
-1.0309299557E+00   -1.0282797440E+00   -1.0256431232E+00   -1.0230199889E+00
-1.0204102380E+00   -1.0178137683E+00   -1.0152304786E+00   -1.0126602688E+00
-1.0101030400E+00   -1.0075586939E+00   -1.0050271334E+00   -1.0025082625E+00
-1.0000019860E+00   -9.9750820959E-01   -9.9502684004E-01   -9.9255778498E-01
-9.9010095298E-01   -9.8765625349E-01   -9.8522359685E-01   -9.8280289431E-01
-9.8039405797E-01   -9.7799700078E-01   -9.7561163656E-01   -9.7323787995E-01
-9.7087564645E-01   -9.6852485233E-01   -9.6618541472E-01   -9.6385725151E-01
-9.6154028140E-01   -9.5923442386E-01   -9.5693959913E-01   -9.5465572823E-01
-9.5238273292E-01   -9.5012053568E-01   -9.4786905977E-01   -9.4562822913E-01
-9.4339796846E-01   -9.4117820314E-01   -9.3896885926E-01   -9.3676986360E-01
-9.3458114363E-01   -9.3240262748E-01   -9.3023424398E-01   -9.2807592258E-01
-9.2592759342E-01   -9.2378918726E-01   -9.2166063552E-01   -9.1954187023E-01
-9.1743282405E-01   -9.1533343026E-01   -9.1324362275E-01   -9.1116333601E-01
-9.0909250512E-01   -9.0703106576E-01   -9.0497895419E-01   -9.0293610724E-01
-9.0090246231E-01   -8.9887795736E-01   -8.9686253091E-01   -8.9485612204E-01
-8.9285867036E-01   -8.9087011602E-01   -8.8889039970E-01   -8.8691946262E-01
-8.8495724651E-01   -8.8300369361E-01   -8.8105874668E-01   -8.7912234897E-01
-8.7719444423E-01   -8.7527497673E-01   -8.7336389118E-01   -8.7146113282E-01
-8.6956664732E-01   -8.6768038085E-01   -8.6580228005E-01   -8.6393229200E-01
-8.6207036425E-01   -8.6021644479E-01   -8.5837048208E-01   -8.5653242500E-01
-8.5470222287E-01   -8.5287982545E-01   -8.5106518291E-01   -8.4925824588E-01
-8.4745896536E-01   -8.4566729280E-01   -8.4388318004E-01   -8.4210657935E-01
-8.4033744337E-01   -8.3857572516E-01   -8.3682137817E-01   -8.3507435622E-01
-8.3333461353E-01   -8.3160210471E-01   -8.2987678473E-01   -8.2815860894E-01
-8.2644753306E-01   -8.2474351316E-01   -8.2304650570E-01   -8.2135646748E-01
-8.1967335565E-01   -8.1799712773E-01   -8.1632774155E-01   -8.1466515533E-01
-8.1300932759E-01   -8.1136021722E-01   -8.0971778341E-01   -8.0808198571E-01
-8.0645278397E-01   -8.0483013838E-01   -8.0321400945E-01   -8.0160435800E-01
-8.0000114516E-01   -7.9840433238E-01   -7.9681388142E-01   -7.9522975431E-01
-7.9365191344E-01   -7.9208032145E-01   -7.9051494129E-01   -7.8895573621E-01
-7.8740266974E-01   -7.8585570570E-01   -7.8431480819E-01   -7.8277994160E-01
-7.8125107059E-01   -7.7972816010E-01   -7.7821117534E-01   -7.7670008179E-01
-7.7519484520E-01   -7.7369543158E-01   -7.7220180721E-01   -7.7071393863E-01
-7.6923179262E-01   -7.6775533625E-01   -7.6628453680E-01   -7.6481936183E-01
-7.6335977914E-01   -7.6190575678E-01   -7.6045726302E-01   -7.5901426640E-01
-7.5757673569E-01   -7.5614463988E-01   -7.5471794822E-01   -7.5329663016E-01
-7.5188065542E-01   -7.5046999391E-01   -7.4906461578E-01   -7.4766449141E-01
-7.4626959140E-01   -7.4487988655E-01   -7.4349534790E-01   -7.4211594669E-01
-7.4074165438E-01   -7.3937244264E-01   -7.3800828335E-01   -7.3664914860E-01
-7.3529501068E-01   -7.3394584207E-01   -7.3260161549E-01   -7.3126230381E-01
-7.2992788015E-01   -7.2859831778E-01   -7.2727359019E-01   -7.2595367106E-01
-7.2463853425E-01   -7.2332815382E-01   -7.2202250401E-01   -7.2072155926E-01
-7.1942529417E-01   -7.1813368354E-01   -7.1684670235E-01   -7.1556432576E-01
-7.1428652908E-01   -7.1301328784E-01   -7.1174457771E-01   -7.1048037456E-01
-7.0922065440E-01   -7.0796539344E-01   -7.0671456804E-01   -7.0546815473E-01
-7.0422613020E-01   -7.0298847132E-01   -7.0175515512E-01   -7.0052615877E-01
-6.9930145961E-01   -6.9808103516E-01   -6.9686486306E-01   -6.9565292114E-01
-6.9444518735E-01   -6.9324163983E-01   -6.9204225684E-01   -6.9084701680E-01
-6.8965589829E-01   -6.8846888002E-01   -6.8728594086E-01   -6.8610705982E-01
-6.8493221605E-01   -6.8376138884E-01   -6.8259455765E-01   -6.8143170203E-01
-6.8027280172E-01   -6.7911783656E-01   -6.7796678654E-01   -6.7681963179E-01
-6.7567635257E-01   -6.7453692928E-01   -6.7340134244E-01   -6.7226957270E-01
-6.7114160086E-01   -6.7001740783E-01   -6.6889697464E-01   -6.6778028248E-01
-6.6666731263E-01   -6.6555804652E-01   -6.6445246568E-01   -6.6335055178E-01
-6.6225228662E-01   -6.6115765209E-01   -6.6006663022E-01   -6.5897920317E-01
-6.5789535318E-01   -6.5681506264E-01   -6.5573831405E-01   -6.5466509001E-01
-6.5359537324E-01   -6.5252914659E-01   -6.5146639299E-01   -6.5040709551E-01
-6.4935123732E-01   -6.4829880169E-01   -6.4724977201E-01   -6.4620413177E-01
-6.4516186457E-01   -6.4412295411E-01   -6.4308738421E-01   -6.4205513878E-01
-6.4102620184E-01   -6.4000055750E-01   -6.3897818999E-01   -6.3795908363E-01
-6.3694322284E-01   -6.3593059213E-01   -6.3492117614E-01   -6.3391495957E-01
-6.3291192723E-01   -6.3191206404E-01   -6.3091535501E-01   -6.2992178522E-01
-6.2893133987E-01   -6.2794400424E-01   -6.2695976372E-01   -6.2597860378E-01
-6.2500050996E-01   -6.2402546793E-01   -6.2305346341E-01   -6.2208448225E-01
-6.2111851036E-01   -6.2015553373E-01   -6.1919553846E-01   -6.1823851072E-01
-6.1728443679E-01   -6.1633330299E-01   -6.1538509577E-01   -6.1443980163E-01
-6.1349740718E-01   -6.1255789909E-01   -6.1162126412E-01   -6.1068748911E-01
-6.0975656098E-01   -6.0882846673E-01   -6.0790319345E-01   -6.0698072828E-01
-6.0606105848E-01   -6.0514417134E-01   -6.0423005426E-01   -6.0331869470E-01
-6.0241008021E-01   -6.0150419840E-01   -6.0060103697E-01   -5.9970058367E-01
-5.9880282635E-01   -5.9790775291E-01   -5.9701535134E-01   -5.9612560969E-01
-5.9523851609E-01   -5.9435405874E-01   -5.9347222589E-01   -5.9259300589E-01
-5.9171638713E-01   -5.9084235810E-01   -5.8997090733E-01   -5.8910202344E-01
-5.8823569509E-01   -5.8737191103E-01   -5.8651066007E-01   -5.8565193108E-01
-5.8479571300E-01   -5.8394199483E-01   -5.8309076565E-01   -5.8224201457E-01
-5.8139573081E-01   -5.8055190360E-01   -5.7971052228E-01   -5.7887157622E-01
-5.7803505487E-01   -5.7720094772E-01   -5.7636924435E-01   -5.7553993438E-01
-5.7471300749E-01   -5.7388845342E-01   -5.7306626198E-01   -5.7224642302E-01
-5.7142892647E-01   -5.7061376229E-01   -5.6980092053E-01   -5.6899039127E-01