<UPF version="2.0.1">
<PP_INFO>

This pseudopotential file has been produced using the code
ONCVPSP  (Optimized Norm-Conservinng Vanderbilt PSeudopotential)
scalar-relativistic version 3.3.0 08/16/2017 by D. R. Hamann
The code is available through a link at URL www.mat-simresearch.com.
Documentation with the package provides a full discription of the
input data below.


While it is not required under the terms of the GNU GPL, it is
suggested that you cite D. R. Hamann, Phys. Rev. B 88, 085117 (2013)
in any publication using these pseudopotentials.

<PP_INPUTFILE>
# ATOM AND REFERENCE CONFIGURATION
# atsym  z   nc   nv     iexc    psfile
N  7.00    1    2   -1012      upf
#
#   n    l    f        energy (Ha)
1    0    2.00
2    0    2.00
2    1    3.00
#
# PSEUDOPOTENTIAL AND OPTIMIZATION
# lmax
1
#
#   l,   rc,      ep,       ncon, nbas, qcut
0   1.20000  -0.67696    4    8   8.80000
1   1.35000  -0.26604    4    8   9.00000
#
# LOCAL POTENTIAL
# lloc, lpopt,  rc(5),   dvloc0
4    5   1.20000      0.00000
#
# VANDERBILT-KLEINMAN-BYLANDER PROJECTORs
# l, nproj, debl
0    2   1.00000
1    2   1.00000
#
# MODEL CORE CHARGE
# icmod, fcfact, rcfact
3   4.00000   1.50000
#
# LOG DERIVATIVE ANALYSIS
# epsh1, epsh2, depsh
-12.00   12.00    0.02
#
# OUTPUT GRID
# rlmax, drl
6.00    0.01
#
# TEST CONFIGURATIONS
# ncnf
0
# nvcnf
#   n    l    f
</PP_INPUTFILE>
</PP_INFO>
<!--                               -->
<!-- END OF HUMAN READABLE SECTION -->
<!--                               -->
<PP_HEADER
generated="Generated using ONCVPSP code by D. R. Hamann"
author="anonymous"
date="180309"
comment=""
element="N "
pseudo_type="NC"
relativistic="scalar"
is_ultrasoft="F"
is_paw="F"
is_coulomb="F"
has_so="F"
has_wfc="F"
has_gipaw="F"
core_correction="T"
functional="SLA  PW   NOGX NOGC"
z_valence="    5.00"
total_psenergy="  -1.93250242913E+01"
rho_cutoff="   1.05700000000E+01"
l_max="1"
l_local="-1"
mesh_size="  1058"
number_of_wfc="2"
number_of_proj="4"/>
<PP_MESH>
<PP_R type="real"  size="1058" columns="8">
0.0000    0.0100    0.0200    0.0300    0.0400    0.0500    0.0600    0.0700
0.0800    0.0900    0.1000    0.1100    0.1200    0.1300    0.1400    0.1500
0.1600    0.1700    0.1800    0.1900    0.2000    0.2100    0.2200    0.2300
0.2400    0.2500    0.2600    0.2700    0.2800    0.2900    0.3000    0.3100
0.3200    0.3300    0.3400    0.3500    0.3600    0.3700    0.3800    0.3900
0.4000    0.4100    0.4200    0.4300    0.4400    0.4500    0.4600    0.4700
0.4800    0.4900    0.5000    0.5100    0.5200    0.5300    0.5400    0.5500
0.5600    0.5700    0.5800    0.5900    0.6000    0.6100    0.6200    0.6300
0.6400    0.6500    0.6600    0.6700    0.6800    0.6900    0.7000    0.7100
0.7200    0.7300    0.7400    0.7500    0.7600    0.7700    0.7800    0.7900
0.8000    0.8100    0.8200    0.8300    0.8400    0.8500    0.8600    0.8700
0.8800    0.8900    0.9000    0.9100    0.9200    0.9300    0.9400    0.9500
0.9600    0.9700    0.9800    0.9900    1.0000    1.0100    1.0200    1.0300
1.0400    1.0500    1.0600    1.0700    1.0800    1.0900    1.1000    1.1100
1.1200    1.1300    1.1400    1.1500    1.1600    1.1700    1.1800    1.1900
1.2000    1.2100    1.2200    1.2300    1.2400    1.2500    1.2600    1.2700
1.2800    1.2900    1.3000    1.3100    1.3200    1.3300    1.3400    1.3500
1.3600    1.3700    1.3800    1.3900    1.4000    1.4100    1.4200    1.4300
1.4400    1.4500    1.4600    1.4700    1.4800    1.4900    1.5000    1.5100
1.5200    1.5300    1.5400    1.5500    1.5600    1.5700    1.5800    1.5900
1.6000    1.6100    1.6200    1.6300    1.6400    1.6500    1.6600    1.6700
1.6800    1.6900    1.7000    1.7100    1.7200    1.7300    1.7400    1.7500
1.7600    1.7700    1.7800    1.7900    1.8000    1.8100    1.8200    1.8300
1.8400    1.8500    1.8600    1.8700    1.8800    1.8900    1.9000    1.9100
1.9200    1.9300    1.9400    1.9500    1.9600    1.9700    1.9800    1.9900
2.0000    2.0100    2.0200    2.0300    2.0400    2.0500    2.0600    2.0700
2.0800    2.0900    2.1000    2.1100    2.1200    2.1300    2.1400    2.1500
2.1600    2.1700    2.1800    2.1900    2.2000    2.2100    2.2200    2.2300
2.2400    2.2500    2.2600    2.2700    2.2800    2.2900    2.3000    2.3100
2.3200    2.3300    2.3400    2.3500    2.3600    2.3700    2.3800    2.3900
2.4000    2.4100    2.4200    2.4300    2.4400    2.4500    2.4600    2.4700
2.4800    2.4900    2.5000    2.5100    2.5200    2.5300    2.5400    2.5500
2.5600    2.5700    2.5800    2.5900    2.6000    2.6100    2.6200    2.6300
2.6400    2.6500    2.6600    2.6700    2.6800    2.6900    2.7000    2.7100
2.7200    2.7300    2.7400    2.7500    2.7600    2.7700    2.7800    2.7900
2.8000    2.8100    2.8200    2.8300    2.8400    2.8500    2.8600    2.8700
2.8800    2.8900    2.9000    2.9100    2.9200    2.9300    2.9400    2.9500
2.9600    2.9700    2.9800    2.9900    3.0000    3.0100    3.0200    3.0300
3.0400    3.0500    3.0600    3.0700    3.0800    3.0900    3.1000    3.1100
3.1200    3.1300    3.1400    3.1500    3.1600    3.1700    3.1800    3.1900
3.2000    3.2100    3.2200    3.2300    3.2400    3.2500    3.2600    3.2700
3.2800    3.2900    3.3000    3.3100    3.3200    3.3300    3.3400    3.3500
3.3600    3.3700    3.3800    3.3900    3.4000    3.4100    3.4200    3.4300
3.4400    3.4500    3.4600    3.4700    3.4800    3.4900    3.5000    3.5100
3.5200    3.5300    3.5400    3.5500    3.5600    3.5700    3.5800    3.5900
3.6000    3.6100    3.6200    3.6300    3.6400    3.6500    3.6600    3.6700
3.6800    3.6900    3.7000    3.7100    3.7200    3.7300    3.7400    3.7500
3.7600    3.7700    3.7800    3.7900    3.8000    3.8100    3.8200    3.8300
3.8400    3.8500    3.8600    3.8700    3.8800    3.8900    3.9000    3.9100
3.9200    3.9300    3.9400    3.9500    3.9600    3.9700    3.9800    3.9900
4.0000    4.0100    4.0200    4.0300    4.0400    4.0500    4.0600    4.0700
4.0800    4.0900    4.1000    4.1100    4.1200    4.1300    4.1400    4.1500
4.1600    4.1700    4.1800    4.1900    4.2000    4.2100    4.2200    4.2300
4.2400    4.2500    4.2600    4.2700    4.2800    4.2900    4.3000    4.3100
4.3200    4.3300    4.3400    4.3500    4.3600    4.3700    4.3800    4.3900
4.4000    4.4100    4.4200    4.4300    4.4400    4.4500    4.4600    4.4700
4.4800    4.4900    4.5000    4.5100    4.5200    4.5300    4.5400    4.5500
4.5600    4.5700    4.5800    4.5900    4.6000    4.6100    4.6200    4.6300
4.6400    4.6500    4.6600    4.6700    4.6800    4.6900    4.7000    4.7100
4.7200    4.7300    4.7400    4.7500    4.7600    4.7700    4.7800    4.7900
4.8000    4.8100    4.8200    4.8300    4.8400    4.8500    4.8600    4.8700
4.8800    4.8900    4.9000    4.9100    4.9200    4.9300    4.9400    4.9500
4.9600    4.9700    4.9800    4.9900    5.0000    5.0100    5.0200    5.0300
5.0400    5.0500    5.0600    5.0700    5.0800    5.0900    5.1000    5.1100
5.1200    5.1300    5.1400    5.1500    5.1600    5.1700    5.1800    5.1900
5.2000    5.2100    5.2200    5.2300    5.2400    5.2500    5.2600    5.2700
5.2800    5.2900    5.3000    5.3100    5.3200    5.3300    5.3400    5.3500
5.3600    5.3700    5.3800    5.3900    5.4000    5.4100    5.4200    5.4300
5.4400    5.4500    5.4600    5.4700    5.4800    5.4900    5.5000    5.5100
5.5200    5.5300    5.5400    5.5500    5.5600    5.5700    5.5800    5.5900
5.6000    5.6100    5.6200    5.6300    5.6400    5.6500    5.6600    5.6700
5.6800    5.6900    5.7000    5.7100    5.7200    5.7300    5.7400    5.7500
5.7600    5.7700    5.7800    5.7900    5.8000    5.8100    5.8200    5.8300
5.8400    5.8500    5.8600    5.8700    5.8800    5.8900    5.9000    5.9100
5.9200    5.9300    5.9400    5.9500    5.9600    5.9700    5.9800    5.9900
6.0000    6.0100    6.0200    6.0300    6.0400    6.0500    6.0600    6.0700
6.0800    6.0900    6.1000    6.1100    6.1200    6.1300    6.1400    6.1500
6.1600    6.1700    6.1800    6.1900    6.2000    6.2100    6.2200    6.2300
6.2400    6.2500    6.2600    6.2700    6.2800    6.2900    6.3000    6.3100
6.3200    6.3300    6.3400    6.3500    6.3600    6.3700    6.3800    6.3900
6.4000    6.4100    6.4200    6.4300    6.4400    6.4500    6.4600    6.4700
6.4800    6.4900    6.5000    6.5100    6.5200    6.5300    6.5400    6.5500
6.5600    6.5700    6.5800    6.5900    6.6000    6.6100    6.6200    6.6300
6.6400    6.6500    6.6600    6.6700    6.6800    6.6900    6.7000    6.7100
6.7200    6.7300    6.7400    6.7500    6.7600    6.7700    6.7800    6.7900
6.8000    6.8100    6.8200    6.8300    6.8400    6.8500    6.8600    6.8700
6.8800    6.8900    6.9000    6.9100    6.9200    6.9300    6.9400    6.9500
6.9600    6.9700    6.9800    6.9900    7.0000    7.0100    7.0200    7.0300
7.0400    7.0500    7.0600    7.0700    7.0800    7.0900    7.1000    7.1100
7.1200    7.1300    7.1400    7.1500    7.1600    7.1700    7.1800    7.1900
7.2000    7.2100    7.2200    7.2300    7.2400    7.2500    7.2600    7.2700
7.2800    7.2900    7.3000    7.3100    7.3200    7.3300    7.3400    7.3500
7.3600    7.3700    7.3800    7.3900    7.4000    7.4100    7.4200    7.4300
7.4400    7.4500    7.4600    7.4700    7.4800    7.4900    7.5000    7.5100
7.5200    7.5300    7.5400    7.5500    7.5600    7.5700    7.5800    7.5900
7.6000    7.6100    7.6200    7.6300    7.6400    7.6500    7.6600    7.6700
7.6800    7.6900    7.7000    7.7100    7.7200    7.7300    7.7400    7.7500
7.7600    7.7700    7.7800    7.7900    7.8000    7.8100    7.8200    7.8300
7.8400    7.8500    7.8600    7.8700    7.8800    7.8900    7.9000    7.9100
7.9200    7.9300    7.9400    7.9500    7.9600    7.9700    7.9800    7.9900
8.0000    8.0100    8.0200    8.0300    8.0400    8.0500    8.0600    8.0700
8.0800    8.0900    8.1000    8.1100    8.1200    8.1300    8.1400    8.1500
8.1600    8.1700    8.1800    8.1900    8.2000    8.2100    8.2200    8.2300
8.2400    8.2500    8.2600    8.2700    8.2800    8.2900    8.3000    8.3100
8.3200    8.3300    8.3400    8.3500    8.3600    8.3700    8.3800    8.3900
8.4000    8.4100    8.4200    8.4300    8.4400    8.4500    8.4600    8.4700
8.4800    8.4900    8.5000    8.5100    8.5200    8.5300    8.5400    8.5500
8.5600    8.5700    8.5800    8.5900    8.6000    8.6100    8.6200    8.6300
8.6400    8.6500    8.6600    8.6700    8.6800    8.6900    8.7000    8.7100
8.7200    8.7300    8.7400    8.7500    8.7600    8.7700    8.7800    8.7900
8.8000    8.8100    8.8200    8.8300    8.8400    8.8500    8.8600    8.8700
8.8800    8.8900    8.9000    8.9100    8.9200    8.9300    8.9400    8.9500
8.9600    8.9700    8.9800    8.9900    9.0000    9.0100    9.0200    9.0300
9.0400    9.0500    9.0600    9.0700    9.0800    9.0900    9.1000    9.1100
9.1200    9.1300    9.1400    9.1500    9.1600    9.1700    9.1800    9.1900
9.2000    9.2100    9.2200    9.2300    9.2400    9.2500    9.2600    9.2700
9.2800    9.2900    9.3000    9.3100    9.3200    9.3300    9.3400    9.3500
9.3600    9.3700    9.3800    9.3900    9.4000    9.4100    9.4200    9.4300
9.4400    9.4500    9.4600    9.4700    9.4800    9.4900    9.5000    9.5100
9.5200    9.5300    9.5400    9.5500    9.5600    9.5700    9.5800    9.5900
9.6000    9.6100    9.6200    9.6300    9.6400    9.6500    9.6600    9.6700
9.6800    9.6900    9.7000    9.7100    9.7200    9.7300    9.7400    9.7500
9.7600    9.7700    9.7800    9.7900    9.8000    9.8100    9.8200    9.8300
9.8400    9.8500    9.8600    9.8700    9.8800    9.8900    9.9000    9.9100
9.9200    9.9300    9.9400    9.9500    9.9600    9.9700    9.9800    9.9900
10.0000   10.0100   10.0200   10.0300   10.0400   10.0500   10.0600   10.0700
10.0800   10.0900   10.1000   10.1100   10.1200   10.1300   10.1400   10.1500
10.1600   10.1700   10.1800   10.1900   10.2000   10.2100   10.2200   10.2300
10.2400   10.2500   10.2600   10.2700   10.2800   10.2900   10.3000   10.3100
10.3200   10.3300   10.3400   10.3500   10.3600   10.3700   10.3800   10.3900
10.4000   10.4100   10.4200   10.4300   10.4400   10.4500   10.4600   10.4700
10.4800   10.4900   10.5000   10.5100   10.5200   10.5300   10.5400   10.5500
10.5600   10.5700
</PP_R>
<PP_RAB type="real"  size="1058" columns="8">
0.0100    0.0100    0.0100    0.0100    0.0100    0.0100    0.0100    0.0100
0.0100    0.0100    0.0100    0.0100    0.0100    0.0100    0.0100    0.0100
0.0100    0.0100    0.0100    0.0100    0.0100    0.0100    0.0100    0.0100
0.0100    0.0100    0.0100    0.0100    0.0100    0.0100    0.0100    0.0100
0.0100    0.0100    0.0100    0.0100    0.0100    0.0100    0.0100    0.0100
0.0100    0.0100    0.0100    0.0100    0.0100    0.0100    0.0100    0.0100
0.0100    0.0100    0.0100    0.0100    0.0100    0.0100    0.0100    0.0100
0.0100    0.0100    0.0100    0.0100    0.0100    0.0100    0.0100    0.0100
0.0100    0.0100    0.0100    0.0100    0.0100    0.0100    0.0100    0.0100
0.0100    0.0100    0.0100    0.0100    0.0100    0.0100    0.0100    0.0100
0.0100    0.0100    0.0100    0.0100    0.0100    0.0100    0.0100    0.0100
0.0100    0.0100    0.0100    0.0100    0.0100    0.0100    0.0100    0.0100
0.0100    0.0100    0.0100    0.0100    0.0100    0.0100    0.0100    0.0100
0.0100    0.0100    0.0100    0.0100    0.0100    0.0100    0.0100    0.0100
0.0100    0.0100    0.0100    0.0100    0.0100    0.0100    0.0100    0.0100
0.0100    0.0100    0.0100    0.0100    0.0100    0.0100    0.0100    0.0100
0.0100    0.0100    0.0100    0.0100    0.0100    0.0100    0.0100    0.0100
0.0100    0.0100    0.0100    0.0100    0.0100    0.0100    0.0100    0.0100
0.0100    0.0100    0.0100    0.0100    0.0100    0.0100    0.0100    0.0100
0.0100    0.0100    0.0100    0.0100    0.0100    0.0100    0.0100    0.0100
0.0100    0.0100    0.0100    0.0100    0.0100    0.0100    0.0100    0.0100
0.0100    0.0100    0.0100    0.0100    0.0100    0.0100    0.0100    0.0100
0.0100    0.0100    0.0100    0.0100    0.0100    0.0100    0.0100    0.0100
0.0100    0.0100    0.0100    0.0100    0.0100    0.0100    0.0100    0.0100
0.0100    0.0100    0.0100    0.0100    0.0100    0.0100    0.0100    0.0100
0.0100    0.0100    0.0100    0.0100    0.0100    0.0100    0.0100    0.0100
0.0100    0.0100    0.0100    0.0100    0.0100    0.0100    0.0100    0.0100
0.0100    0.0100    0.0100    0.0100    0.0100    0.0100    0.0100    0.0100
0.0100    0.0100    0.0100    0.0100    0.0100    0.0100    0.0100    0.0100
0.0100    0.0100    0.0100    0.0100    0.0100    0.0100    0.0100    0.0100
0.0100    0.0100    0.0100    0.0100    0.0100    0.0100    0.0100    0.0100
0.0100    0.0100    0.0100    0.0100    0.0100    0.0100    0.0100    0.0100
0.0100    0.0100    0.0100    0.0100    0.0100    0.0100    0.0100    0.0100
0.0100    0.0100    0.0100    0.0100    0.0100    0.0100    0.0100    0.0100
0.0100    0.0100    0.0100    0.0100    0.0100    0.0100    0.0100    0.0100
0.0100    0.0100    0.0100    0.0100    0.0100    0.0100    0.0100    0.0100
0.0100    0.0100    0.0100    0.0100    0.0100    0.0100    0.0100    0.0100
0.0100    0.0100    0.0100    0.0100    0.0100    0.0100    0.0100    0.0100
0.0100    0.0100    0.0100    0.0100    0.0100    0.0100    0.0100    0.0100
0.0100    0.0100    0.0100    0.0100    0.0100    0.0100    0.0100    0.0100
0.0100    0.0100    0.0100    0.0100    0.0100    0.0100    0.0100    0.0100
0.0100    0.0100    0.0100    0.0100    0.0100    0.0100    0.0100    0.0100
0.0100    0.0100    0.0100    0.0100    0.0100    0.0100    0.0100    0.0100
0.0100    0.0100    0.0100    0.0100    0.0100    0.0100    0.0100    0.0100
0.0100    0.0100    0.0100    0.0100    0.0100    0.0100    0.0100    0.0100
0.0100    0.0100    0.0100    0.0100    0.0100    0.0100    0.0100    0.0100
0.0100    0.0100    0.0100    0.0100    0.0100    0.0100    0.0100    0.0100
0.0100    0.0100    0.0100    0.0100    0.0100    0.0100    0.0100    0.0100
0.0100    0.0100    0.0100    0.0100    0.0100    0.0100    0.0100    0.0100
0.0100    0.0100    0.0100    0.0100    0.0100    0.0100    0.0100    0.0100
0.0100    0.0100    0.0100    0.0100    0.0100    0.0100    0.0100    0.0100
0.0100    0.0100    0.0100    0.0100    0.0100    0.0100    0.0100    0.0100
0.0100    0.0100    0.0100    0.0100    0.0100    0.0100    0.0100    0.0100
0.0100    0.0100    0.0100    0.0100    0.0100    0.0100    0.0100    0.0100
0.0100    0.0100    0.0100    0.0100    0.0100    0.0100    0.0100    0.0100
0.0100    0.0100    0.0100    0.0100    0.0100    0.0100    0.0100    0.0100
0.0100    0.0100    0.0100    0.0100    0.0100    0.0100    0.0100    0.0100
0.0100    0.0100    0.0100    0.0100    0.0100    0.0100    0.0100    0.0100
0.0100    0.0100    0.0100    0.0100    0.0100    0.0100    0.0100    0.0100
0.0100    0.0100    0.0100    0.0100    0.0100    0.0100    0.0100    0.0100
0.0100    0.0100    0.0100    0.0100    0.0100    0.0100    0.0100    0.0100
0.0100    0.0100    0.0100    0.0100    0.0100    0.0100    0.0100    0.0100
0.0100    0.0100    0.0100    0.0100    0.0100    0.0100    0.0100    0.0100
0.0100    0.0100    0.0100    0.0100    0.0100    0.0100    0.0100    0.0100
0.0100    0.0100    0.0100    0.0100    0.0100    0.0100    0.0100    0.0100
0.0100    0.0100    0.0100    0.0100    0.0100    0.0100    0.0100    0.0100
0.0100    0.0100    0.0100    0.0100    0.0100    0.0100    0.0100    0.0100
0.0100    0.0100    0.0100    0.0100    0.0100    0.0100    0.0100    0.0100
0.0100    0.0100    0.0100    0.0100    0.0100    0.0100    0.0100    0.0100
0.0100    0.0100    0.0100    0.0100    0.0100    0.0100    0.0100    0.0100
0.0100    0.0100    0.0100    0.0100    0.0100    0.0100    0.0100    0.0100
0.0100    0.0100    0.0100    0.0100    0.0100    0.0100    0.0100    0.0100
0.0100    0.0100    0.0100    0.0100    0.0100    0.0100    0.0100    0.0100
0.0100    0.0100    0.0100    0.0100    0.0100    0.0100    0.0100    0.0100
0.0100    0.0100    0.0100    0.0100    0.0100    0.0100    0.0100    0.0100
0.0100    0.0100    0.0100    0.0100    0.0100    0.0100    0.0100    0.0100
0.0100    0.0100    0.0100    0.0100    0.0100    0.0100    0.0100    0.0100
0.0100    0.0100    0.0100    0.0100    0.0100    0.0100    0.0100    0.0100
0.0100    0.0100    0.0100    0.0100    0.0100    0.0100    0.0100    0.0100
0.0100    0.0100    0.0100    0.0100    0.0100    0.0100    0.0100    0.0100
0.0100    0.0100    0.0100    0.0100    0.0100    0.0100    0.0100    0.0100
0.0100    0.0100    0.0100    0.0100    0.0100    0.0100    0.0100    0.0100
0.0100    0.0100    0.0100    0.0100    0.0100    0.0100    0.0100    0.0100
0.0100    0.0100    0.0100    0.0100    0.0100    0.0100    0.0100    0.0100
0.0100    0.0100    0.0100    0.0100    0.0100    0.0100    0.0100    0.0100
0.0100    0.0100    0.0100    0.0100    0.0100    0.0100    0.0100    0.0100
0.0100    0.0100    0.0100    0.0100    0.0100    0.0100    0.0100    0.0100
0.0100    0.0100    0.0100    0.0100    0.0100    0.0100    0.0100    0.0100
0.0100    0.0100    0.0100    0.0100    0.0100    0.0100    0.0100    0.0100
0.0100    0.0100    0.0100    0.0100    0.0100    0.0100    0.0100    0.0100
0.0100    0.0100    0.0100    0.0100    0.0100    0.0100    0.0100    0.0100
0.0100    0.0100    0.0100    0.0100    0.0100    0.0100    0.0100    0.0100
0.0100    0.0100    0.0100    0.0100    0.0100    0.0100    0.0100    0.0100
0.0100    0.0100    0.0100    0.0100    0.0100    0.0100    0.0100    0.0100
0.0100    0.0100    0.0100    0.0100    0.0100    0.0100    0.0100    0.0100
0.0100    0.0100    0.0100    0.0100    0.0100    0.0100    0.0100    0.0100
0.0100    0.0100    0.0100    0.0100    0.0100    0.0100    0.0100    0.0100
0.0100    0.0100    0.0100    0.0100    0.0100    0.0100    0.0100    0.0100
0.0100    0.0100    0.0100    0.0100    0.0100    0.0100    0.0100    0.0100
0.0100    0.0100    0.0100    0.0100    0.0100    0.0100    0.0100    0.0100
0.0100    0.0100    0.0100    0.0100    0.0100    0.0100    0.0100    0.0100
0.0100    0.0100    0.0100    0.0100    0.0100    0.0100    0.0100    0.0100
0.0100    0.0100    0.0100    0.0100    0.0100    0.0100    0.0100    0.0100
0.0100    0.0100    0.0100    0.0100    0.0100    0.0100    0.0100    0.0100
0.0100    0.0100    0.0100    0.0100    0.0100    0.0100    0.0100    0.0100
0.0100    0.0100    0.0100    0.0100    0.0100    0.0100    0.0100    0.0100
0.0100    0.0100    0.0100    0.0100    0.0100    0.0100    0.0100    0.0100
0.0100    0.0100    0.0100    0.0100    0.0100    0.0100    0.0100    0.0100
0.0100    0.0100    0.0100    0.0100    0.0100    0.0100    0.0100    0.0100
0.0100    0.0100    0.0100    0.0100    0.0100    0.0100    0.0100    0.0100
0.0100    0.0100    0.0100    0.0100    0.0100    0.0100    0.0100    0.0100
0.0100    0.0100    0.0100    0.0100    0.0100    0.0100    0.0100    0.0100
0.0100    0.0100    0.0100    0.0100    0.0100    0.0100    0.0100    0.0100
0.0100    0.0100    0.0100    0.0100    0.0100    0.0100    0.0100    0.0100
0.0100    0.0100    0.0100    0.0100    0.0100    0.0100    0.0100    0.0100
0.0100    0.0100    0.0100    0.0100    0.0100    0.0100    0.0100    0.0100
0.0100    0.0100    0.0100    0.0100    0.0100    0.0100    0.0100    0.0100
0.0100    0.0100    0.0100    0.0100    0.0100    0.0100    0.0100    0.0100
0.0100    0.0100    0.0100    0.0100    0.0100    0.0100    0.0100    0.0100
0.0100    0.0100    0.0100    0.0100    0.0100    0.0100    0.0100    0.0100
0.0100    0.0100    0.0100    0.0100    0.0100    0.0100    0.0100    0.0100
0.0100    0.0100    0.0100    0.0100    0.0100    0.0100    0.0100    0.0100
0.0100    0.0100    0.0100    0.0100    0.0100    0.0100    0.0100    0.0100
0.0100    0.0100    0.0100    0.0100    0.0100    0.0100    0.0100    0.0100
0.0100    0.0100    0.0100    0.0100    0.0100    0.0100    0.0100    0.0100
0.0100    0.0100    0.0100    0.0100    0.0100    0.0100    0.0100    0.0100
0.0100    0.0100    0.0100    0.0100    0.0100    0.0100    0.0100    0.0100
0.0100    0.0100    0.0100    0.0100    0.0100    0.0100    0.0100    0.0100
0.0100    0.0100    0.0100    0.0100    0.0100    0.0100    0.0100    0.0100
0.0100    0.0100    0.0100    0.0100    0.0100    0.0100    0.0100    0.0100
0.0100    0.0100    0.0100    0.0100    0.0100    0.0100    0.0100    0.0100
0.0100    0.0100    0.0100    0.0100    0.0100    0.0100    0.0100    0.0100
0.0100    0.0100
</PP_RAB>
</PP_MESH>
<PP_LOCAL type="real"  size="1058" columns="4">
-1.7028214881E+01   -1.7027517148E+01   -1.7025423215E+01   -1.7021930950E+01
-1.7017036808E+01   -1.7010735846E+01   -1.7003021756E+01   -1.6993886896E+01
-1.6983322325E+01   -1.6971317855E+01   -1.6957862105E+01   -1.6942942554E+01
-1.6926545613E+01   -1.6908656694E+01   -1.6889260292E+01   -1.6868340059E+01
-1.6845878902E+01   -1.6821859071E+01   -1.6796262256E+01   -1.6769069695E+01
-1.6740262271E+01   -1.6709820630E+01   -1.6677725292E+01   -1.6643956765E+01
-1.6608495668E+01   -1.6571322852E+01   -1.6532419525E+01   -1.6491767380E+01
-1.6449348724E+01   -1.6405146610E+01   -1.6359144969E+01   -1.6311328745E+01
-1.6261684032E+01   -1.6210198210E+01   -1.6156860081E+01   -1.6101660010E+01
-1.6044590062E+01   -1.5985644137E+01   -1.5924818111E+01   -1.5862109968E+01
-1.5797519930E+01   -1.5731050595E+01   -1.5662707050E+01   -1.5592497004E+01
-1.5520430889E+01   -1.5446521975E+01   -1.5370786463E+01   -1.5293243570E+01
-1.5213915609E+01   -1.5132828041E+01   -1.5050009529E+01   -1.4965491963E+01
-1.4879310475E+01   -1.4791503431E+01   -1.4702112403E+01   -1.4611182126E+01
-1.4518760428E+01   -1.4424898145E+01   -1.4329649011E+01   -1.4233069529E+01
-1.4135218824E+01   -1.4036158480E+01   -1.3935952359E+01   -1.3834666400E+01
-1.3732368421E+01   -1.3629127891E+01   -1.3525015712E+01   -1.3420103985E+01
-1.3314465776E+01   -1.3208174885E+01   -1.3101305607E+01   -1.2993932511E+01
-1.2886130209E+01   -1.2777973147E+01   -1.2669535395E+01   -1.2560890449E+01
-1.2452111049E+01   -1.2343269001E+01   -1.2234435020E+01   -1.2125678576E+01
-1.2017067763E+01   -1.1908669173E+01   -1.1800547786E+01   -1.1692766867E+01
-1.1585387887E+01   -1.1478470435E+01   -1.1372072163E+01   -1.1266248721E+01
-1.1161053712E+01   -1.1056538653E+01   -1.0952752938E+01   -1.0849743819E+01
-1.0747556377E+01   -1.0646233513E+01   -1.0545815930E+01   -1.0446342132E+01
-1.0347848413E+01   -1.0250368855E+01   -1.0153935325E+01   -1.0058577478E+01
-9.9643227495E+00   -9.8711963571E+00   -9.7792212980E+00   -9.6884183439E+00
-9.5988060349E+00   -9.5104006710E+00   -9.4232163006E+00   -9.3372647055E+00
-9.2525553829E+00   -9.1690955228E+00   -9.0868899820E+00   -9.0059412531E+00
-8.9262494294E+00   -8.8478121649E+00   -8.7706246300E+00   -8.6946794622E+00
-8.6199667118E+00   -8.5464737825E+00   -8.4741853697E+00   -8.4030834044E+00
-8.3331469982E+00   -8.2643521294E+00   -8.1966729215E+00   -8.1300831138E+00
-8.0645574720E+00   -8.0000715855E+00   -7.9366017828E+00   -7.8741251308E+00
-7.8126193802E+00   -7.7520629193E+00   -7.6924347367E+00   -7.6337143830E+00
-7.5758819345E+00   -7.5189179621E+00   -7.4628034996E+00   -7.4075200183E+00
-7.3530494018E+00   -7.2993739538E+00   -7.2464764150E+00   -7.1943400126E+00
-7.1429484684E+00   -7.0922859743E+00   -7.0423371663E+00   -6.9930870945E+00
-6.9445212220E+00   -6.8966254112E+00   -6.8493859061E+00   -6.8027893198E+00
-6.7568226224E+00   -6.7114731296E+00   -6.6667284910E+00   -6.6225766797E+00
-6.5790059823E+00   -6.5360049891E+00   -6.4935625850E+00   -6.4516679403E+00
-6.4103105024E+00   -6.3694799875E+00   -6.3291663724E+00   -6.2893598870E+00
-6.2500510068E+00   -6.2112304453E+00   -6.1728891472E+00   -6.1350182814E+00
-6.0976092340E+00   -6.0606536023E+00   -6.0241431879E+00   -5.9880699908E+00
-5.9524262032E+00   -5.9172042037E+00   -5.8823965517E+00   -5.8479959818E+00
-5.8139953984E+00   -5.7803878707E+00   -5.7471666276E+00   -5.7143250530E+00
-5.6818566811E+00   -5.6497551921E+00   -5.6180144077E+00   -5.5866282871E+00
-5.5555909232E+00   -5.5248965386E+00   -5.4945394822E+00   -5.4645142256E+00
-5.4348153596E+00   -5.4054375914E+00   -5.3763757413E+00   -5.3476247396E+00
-5.3191796239E+00   -5.2910355367E+00   -5.2631877219E+00   -5.2356315233E+00
-5.2083623810E+00   -5.1813758301E+00   -5.1546674975E+00   -5.1282331000E+00
-5.1020684422E+00   -5.0761694140E+00   -5.0505319887E+00   -5.0251522211E+00
-5.0000262453E+00   -4.9751502720E+00   -4.9505205877E+00   -4.9261335536E+00
-4.9019856036E+00   -4.8780732418E+00   -4.8543930403E+00   -4.8309416375E+00
-4.8077157336E+00   -4.7847120911E+00   -4.7619275341E+00   -4.7393589478E+00
-4.7170032761E+00   -4.6948575200E+00   -4.6729187369E+00   -4.6511840386E+00
-4.6296505905E+00   -4.6083156104E+00   -4.5871763669E+00   -4.5662301787E+00
-4.5454744131E+00   -4.5249064852E+00   -4.5045238566E+00   -4.4843240343E+00
-4.4643045702E+00   -4.4444630592E+00   -4.4247971393E+00   -4.4053044897E+00
-4.3859828305E+00   -4.3668299216E+00   -4.3478435620E+00   -4.3290215886E+00
-4.3103618756E+00   -4.2918623338E+00   -4.2735209098E+00   -4.2553355850E+00
-4.2373043750E+00   -4.2194253289E+00   -4.2016965287E+00   -4.1841160885E+00
-4.1666821536E+00   -4.1493929004E+00   -4.1322465353E+00   -4.1152412941E+00
-4.0983754417E+00   -4.0816472713E+00   -4.0650551038E+00   -4.0485972873E+00
-4.0322721966E+00   -4.0160782326E+00   -4.0000138216E+00   -3.9840774153E+00
-3.9682674897E+00   -3.9525825451E+00   -3.9370211052E+00   -3.9215817171E+00
-3.9062629505E+00   -3.8910633972E+00   -3.8759816711E+00   -3.8610164073E+00
-3.8461662620E+00   -3.8314299121E+00   -3.8168060545E+00   -3.8022934059E+00
-3.7878907027E+00   -3.7735967002E+00   -3.7594101723E+00   -3.7453299115E+00
-3.7313547283E+00   -3.7174834507E+00   -3.7037149241E+00   -3.6900480113E+00
-3.6764815912E+00   -3.6630145598E+00   -3.6496458286E+00   -3.6363743255E+00
-3.6231989934E+00   -3.6101187908E+00   -3.5971326912E+00   -3.5842396827E+00
-3.5714387679E+00   -3.5587289634E+00   -3.5461093001E+00   -3.5335788225E+00
-3.5211365883E+00   -3.5087816686E+00   -3.4965131477E+00   -3.4843301224E+00
-3.4722317020E+00   -3.4602170083E+00   -3.4482851751E+00   -3.4364353483E+00
-3.4246666853E+00   -3.4129783550E+00   -3.4013695377E+00   -3.3898394247E+00
-3.3783872185E+00   -3.3670121321E+00   -3.3557133890E+00   -3.3444902233E+00
-3.3333418792E+00   -3.3222676109E+00   -3.3112666827E+00   -3.3003383683E+00
-3.2894819511E+00   -3.2786967241E+00   -3.2679819891E+00   -3.2573370574E+00
-3.2467612491E+00   -3.2362538930E+00   -3.2258143267E+00   -3.2154418963E+00
-3.2051359562E+00   -3.1948958691E+00   -3.1847210059E+00   -3.1746107454E+00
-3.1645644743E+00   -3.1545815869E+00   -3.1446614853E+00   -3.1348035790E+00
-3.1250072850E+00   -3.1152720274E+00   -3.1055972376E+00   -3.0959823539E+00
-3.0864268217E+00   -3.0769300930E+00   -3.0674916268E+00   -3.0581108885E+00
-3.0487873501E+00   -3.0395204900E+00   -3.0303097930E+00   -3.0211547500E+00
-3.0120548582E+00   -3.0030096206E+00   -2.9940185464E+00   -2.9850811505E+00
-2.9761969536E+00   -2.9673654822E+00   -2.9585862682E+00   -2.9498588493E+00
-2.9411827683E+00   -2.9325575737E+00   -2.9239828191E+00   -2.9154580632E+00
-2.9069828701E+00   -2.8985568087E+00   -2.8901794531E+00   -2.8818503822E+00
-2.8735691797E+00   -2.8653354342E+00   -2.8571487388E+00   -2.8490086914E+00
-2.8409148945E+00   -2.8328669550E+00   -2.8248644843E+00   -2.8169070981E+00
-2.8089944165E+00   -2.8011260638E+00   -2.7933016685E+00   -2.7855208634E+00
-2.7777832851E+00   -2.7700885744E+00   -2.7624363762E+00   -2.7548263389E+00
-2.7472581152E+00   -2.7397313613E+00   -2.7322457375E+00   -2.7248009073E+00
-2.7173965383E+00   -2.7100323016E+00   -2.7027078716E+00   -2.6954229266E+00
-2.6881771481E+00   -2.6809702211E+00   -2.6738018340E+00   -2.6666716784E+00
-2.6595794492E+00   -2.6525248447E+00   -2.6455075663E+00   -2.6385273186E+00