<UPF version="2.0.1">
<PP_INFO>

This pseudopotential file has been produced using the code
ONCVPSP  (Optimized Norm-Conservinng Vanderbilt PSeudopotential)
scalar-relativistic version 3.3.0 08/16/2017 by D. R. Hamann
The code is available through a link at URL www.mat-simresearch.com.
Documentation with the package provides a full discription of the
input data below.


While it is not required under the terms of the GNU GPL, it is
suggested that you cite D. R. Hamann, Phys. Rev. B 88, 085117 (2013)
in any publication using these pseudopotentials.

<PP_INPUTFILE>
# ATOM AND REFERENCE CONFIGURATION
# atsym  z   nc   nv     iexc    psfile
Ne 10.00    1    2   -1012      upf
#
#   n    l    f        energy (Ha)
1    0    2.00
2    0    2.00
2    1    6.00
#
# PSEUDOPOTENTIAL AND OPTIMIZATION
# lmax
1
#
#   l,   rc,      ep,       ncon, nbas, qcut
0   1.30000  -1.32722    4    7   8.70000
1   1.70000  -0.49737    4    7   8.50000
#
# LOCAL POTENTIAL
# lloc, lpopt,  rc(5),   dvloc0
4    5   1.30000      0.00000
#
# VANDERBILT-KLEINMAN-BYLANDER PROJECTORs
# l, nproj, debl
0    2   1.50000
1    2   1.50000
#
# MODEL CORE CHARGE
# icmod, fcfact, rcfact
0   0.00000   0.00000
#
# LOG DERIVATIVE ANALYSIS
# epsh1, epsh2, depsh
-12.00   12.00    0.02
#
# OUTPUT GRID
# rlmax, drl
4.00    0.01
#
# TEST CONFIGURATIONS
# ncnf
0
# nvcnf
#   n    l    f
</PP_INPUTFILE>
</PP_INFO>
<!--                               -->
<!-- END OF HUMAN READABLE SECTION -->
<!--                               -->
<PP_HEADER
generated="Generated using ONCVPSP code by D. R. Hamann"
author="anonymous"
date="180309"
comment=""
element="Ne"
pseudo_type="NC"
relativistic="scalar"
is_ultrasoft="F"
is_paw="F"
is_coulomb="F"
has_so="F"
has_wfc="F"
has_gipaw="F"
core_correction="F"
functional="SLA  PW   NOGX NOGC"
z_valence="    8.00"
total_psenergy="  -6.67722964830E+01"
rho_cutoff="   7.49000000000E+00"
l_max="1"
l_local="-1"
mesh_size="   750"
number_of_wfc="2"
number_of_proj="4"/>
<PP_MESH>
<PP_R type="real"  size=" 750" columns="8">
0.0000    0.0100    0.0200    0.0300    0.0400    0.0500    0.0600    0.0700
0.0800    0.0900    0.1000    0.1100    0.1200    0.1300    0.1400    0.1500
0.1600    0.1700    0.1800    0.1900    0.2000    0.2100    0.2200    0.2300
0.2400    0.2500    0.2600    0.2700    0.2800    0.2900    0.3000    0.3100
0.3200    0.3300    0.3400    0.3500    0.3600    0.3700    0.3800    0.3900
0.4000    0.4100    0.4200    0.4300    0.4400    0.4500    0.4600    0.4700
0.4800    0.4900    0.5000    0.5100    0.5200    0.5300    0.5400    0.5500
0.5600    0.5700    0.5800    0.5900    0.6000    0.6100    0.6200    0.6300
0.6400    0.6500    0.6600    0.6700    0.6800    0.6900    0.7000    0.7100
0.7200    0.7300    0.7400    0.7500    0.7600    0.7700    0.7800    0.7900
0.8000    0.8100    0.8200    0.8300    0.8400    0.8500    0.8600    0.8700
0.8800    0.8900    0.9000    0.9100    0.9200    0.9300    0.9400    0.9500
0.9600    0.9700    0.9800    0.9900    1.0000    1.0100    1.0200    1.0300
1.0400    1.0500    1.0600    1.0700    1.0800    1.0900    1.1000    1.1100
1.1200    1.1300    1.1400    1.1500    1.1600    1.1700    1.1800    1.1900
1.2000    1.2100    1.2200    1.2300    1.2400    1.2500    1.2600    1.2700
1.2800    1.2900    1.3000    1.3100    1.3200    1.3300    1.3400    1.3500
1.3600    1.3700    1.3800    1.3900    1.4000    1.4100    1.4200    1.4300
1.4400    1.4500    1.4600    1.4700    1.4800    1.4900    1.5000    1.5100
1.5200    1.5300    1.5400    1.5500    1.5600    1.5700    1.5800    1.5900
1.6000    1.6100    1.6200    1.6300    1.6400    1.6500    1.6600    1.6700
1.6800    1.6900    1.7000    1.7100    1.7200    1.7300    1.7400    1.7500
1.7600    1.7700    1.7800    1.7900    1.8000    1.8100    1.8200    1.8300
1.8400    1.8500    1.8600    1.8700    1.8800    1.8900    1.9000    1.9100
1.9200    1.9300    1.9400    1.9500    1.9600    1.9700    1.9800    1.9900
2.0000    2.0100    2.0200    2.0300    2.0400    2.0500    2.0600    2.0700
2.0800    2.0900    2.1000    2.1100    2.1200    2.1300    2.1400    2.1500
2.1600    2.1700    2.1800    2.1900    2.2000    2.2100    2.2200    2.2300
2.2400    2.2500    2.2600    2.2700    2.2800    2.2900    2.3000    2.3100
2.3200    2.3300    2.3400    2.3500    2.3600    2.3700    2.3800    2.3900
2.4000    2.4100    2.4200    2.4300    2.4400    2.4500    2.4600    2.4700
2.4800    2.4900    2.5000    2.5100    2.5200    2.5300    2.5400    2.5500
2.5600    2.5700    2.5800    2.5900    2.6000    2.6100    2.6200    2.6300
2.6400    2.6500    2.6600    2.6700    2.6800    2.6900    2.7000    2.7100
2.7200    2.7300    2.7400    2.7500    2.7600    2.7700    2.7800    2.7900
2.8000    2.8100    2.8200    2.8300    2.8400    2.8500    2.8600    2.8700
2.8800    2.8900    2.9000    2.9100    2.9200    2.9300    2.9400    2.9500
2.9600    2.9700    2.9800    2.9900    3.0000    3.0100    3.0200    3.0300
3.0400    3.0500    3.0600    3.0700    3.0800    3.0900    3.1000    3.1100
3.1200    3.1300    3.1400    3.1500    3.1600    3.1700    3.1800    3.1900
3.2000    3.2100    3.2200    3.2300    3.2400    3.2500    3.2600    3.2700
3.2800    3.2900    3.3000    3.3100    3.3200    3.3300    3.3400    3.3500
3.3600    3.3700    3.3800    3.3900    3.4000    3.4100    3.4200    3.4300
3.4400    3.4500    3.4600    3.4700    3.4800    3.4900    3.5000    3.5100
3.5200    3.5300    3.5400    3.5500    3.5600    3.5700    3.5800    3.5900
3.6000    3.6100    3.6200    3.6300    3.6400    3.6500    3.6600    3.6700
3.6800    3.6900    3.7000    3.7100    3.7200    3.7300    3.7400    3.7500
3.7600    3.7700    3.7800    3.7900    3.8000    3.8100    3.8200    3.8300
3.8400    3.8500    3.8600    3.8700    3.8800    3.8900    3.9000    3.9100
3.9200    3.9300    3.9400    3.9500    3.9600    3.9700    3.9800    3.9900
4.0000    4.0100    4.0200    4.0300    4.0400    4.0500    4.0600    4.0700
4.0800    4.0900    4.1000    4.1100    4.1200    4.1300    4.1400    4.1500
4.1600    4.1700    4.1800    4.1900    4.2000    4.2100    4.2200    4.2300
4.2400    4.2500    4.2600    4.2700    4.2800    4.2900    4.3000    4.3100
4.3200    4.3300    4.3400    4.3500    4.3600    4.3700    4.3800    4.3900
4.4000    4.4100    4.4200    4.4300    4.4400    4.4500    4.4600    4.4700
4.4800    4.4900    4.5000    4.5100    4.5200    4.5300    4.5400    4.5500
4.5600    4.5700    4.5800    4.5900    4.6000    4.6100    4.6200    4.6300
4.6400    4.6500    4.6600    4.6700    4.6800    4.6900    4.7000    4.7100
4.7200    4.7300    4.7400    4.7500    4.7600    4.7700    4.7800    4.7900
4.8000    4.8100    4.8200    4.8300    4.8400    4.8500    4.8600    4.8700
4.8800    4.8900    4.9000    4.9100    4.9200    4.9300    4.9400    4.9500
4.9600    4.9700    4.9800    4.9900    5.0000    5.0100    5.0200    5.0300
5.0400    5.0500    5.0600    5.0700    5.0800    5.0900    5.1000    5.1100
5.1200    5.1300    5.1400    5.1500    5.1600    5.1700    5.1800    5.1900
5.2000    5.2100    5.2200    5.2300    5.2400    5.2500    5.2600    5.2700
5.2800    5.2900    5.3000    5.3100    5.3200    5.3300    5.3400    5.3500
5.3600    5.3700    5.3800    5.3900    5.4000    5.4100    5.4200    5.4300
5.4400    5.4500    5.4600    5.4700    5.4800    5.4900    5.5000    5.5100
5.5200    5.5300    5.5400    5.5500    5.5600    5.5700    5.5800    5.5900
5.6000    5.6100    5.6200    5.6300    5.6400    5.6500    5.6600    5.6700
5.6800    5.6900    5.7000    5.7100    5.7200    5.7300    5.7400    5.7500
5.7600    5.7700    5.7800    5.7900    5.8000    5.8100    5.8200    5.8300
5.8400    5.8500    5.8600    5.8700    5.8800    5.8900    5.9000    5.9100
5.9200    5.9300    5.9400    5.9500    5.9600    5.9700    5.9800    5.9900
6.0000    6.0100    6.0200    6.0300    6.0400    6.0500    6.0600    6.0700
6.0800    6.0900    6.1000    6.1100    6.1200    6.1300    6.1400    6.1500
6.1600    6.1700    6.1800    6.1900    6.2000    6.2100    6.2200    6.2300
6.2400    6.2500    6.2600    6.2700    6.2800    6.2900    6.3000    6.3100
6.3200    6.3300    6.3400    6.3500    6.3600    6.3700    6.3800    6.3900
6.4000    6.4100    6.4200    6.4300    6.4400    6.4500    6.4600    6.4700
6.4800    6.4900    6.5000    6.5100    6.5200    6.5300    6.5400    6.5500
6.5600    6.5700    6.5800    6.5900    6.6000    6.6100    6.6200    6.6300
6.6400    6.6500    6.6600    6.6700    6.6800    6.6900    6.7000    6.7100
6.7200    6.7300    6.7400    6.7500    6.7600    6.7700    6.7800    6.7900
6.8000    6.8100    6.8200    6.8300    6.8400    6.8500    6.8600    6.8700
6.8800    6.8900    6.9000    6.9100    6.9200    6.9300    6.9400    6.9500
6.9600    6.9700    6.9800    6.9900    7.0000    7.0100    7.0200    7.0300
7.0400    7.0500    7.0600    7.0700    7.0800    7.0900    7.1000    7.1100
7.1200    7.1300    7.1400    7.1500    7.1600    7.1700    7.1800    7.1900
7.2000    7.2100    7.2200    7.2300    7.2400    7.2500    7.2600    7.2700
7.2800    7.2900    7.3000    7.3100    7.3200    7.3300    7.3400    7.3500
7.3600    7.3700    7.3800    7.3900    7.4000    7.4100    7.4200    7.4300
7.4400    7.4500    7.4600    7.4700    7.4800    7.4900
</PP_R>
<PP_RAB type="real"  size=" 750" columns="8">
0.0100    0.0100    0.0100    0.0100    0.0100    0.0100    0.0100    0.0100
0.0100    0.0100    0.0100    0.0100    0.0100    0.0100    0.0100    0.0100
0.0100    0.0100    0.0100    0.0100    0.0100    0.0100    0.0100    0.0100
0.0100    0.0100    0.0100    0.0100    0.0100    0.0100    0.0100    0.0100
0.0100    0.0100    0.0100    0.0100    0.0100    0.0100    0.0100    0.0100
0.0100    0.0100    0.0100    0.0100    0.0100    0.0100    0.0100    0.0100
0.0100    0.0100    0.0100    0.0100    0.0100    0.0100    0.0100    0.0100
0.0100    0.0100    0.0100    0.0100    0.0100    0.0100    0.0100    0.0100
0.0100    0.0100    0.0100    0.0100    0.0100    0.0100    0.0100    0.0100
0.0100    0.0100    0.0100    0.0100    0.0100    0.0100    0.0100    0.0100
0.0100    0.0100    0.0100    0.0100    0.0100    0.0100    0.0100    0.0100
0.0100    0.0100    0.0100    0.0100    0.0100    0.0100    0.0100    0.0100
0.0100    0.0100    0.0100    0.0100    0.0100    0.0100    0.0100    0.0100
0.0100    0.0100    0.0100    0.0100    0.0100    0.0100    0.0100    0.0100
0.0100    0.0100    0.0100    0.0100    0.0100    0.0100    0.0100    0.0100
0.0100    0.0100    0.0100    0.0100    0.0100    0.0100    0.0100    0.0100
0.0100    0.0100    0.0100    0.0100    0.0100    0.0100    0.0100    0.0100
0.0100    0.0100    0.0100    0.0100    0.0100    0.0100    0.0100    0.0100
0.0100    0.0100    0.0100    0.0100    0.0100    0.0100    0.0100    0.0100
0.0100    0.0100    0.0100    0.0100    0.0100    0.0100    0.0100    0.0100
0.0100    0.0100    0.0100    0.0100    0.0100    0.0100    0.0100    0.0100
0.0100    0.0100    0.0100    0.0100    0.0100    0.0100    0.0100    0.0100
0.0100    0.0100    0.0100    0.0100    0.0100    0.0100    0.0100    0.0100
0.0100    0.0100    0.0100    0.0100    0.0100    0.0100    0.0100    0.0100
0.0100    0.0100    0.0100    0.0100    0.0100    0.0100    0.0100    0.0100
0.0100    0.0100    0.0100    0.0100    0.0100    0.0100    0.0100    0.0100
0.0100    0.0100    0.0100    0.0100    0.0100    0.0100    0.0100    0.0100
0.0100    0.0100    0.0100    0.0100    0.0100    0.0100    0.0100    0.0100
0.0100    0.0100    0.0100    0.0100    0.0100    0.0100    0.0100    0.0100
0.0100    0.0100    0.0100    0.0100    0.0100    0.0100    0.0100    0.0100
0.0100    0.0100    0.0100    0.0100    0.0100    0.0100    0.0100    0.0100
0.0100    0.0100    0.0100    0.0100    0.0100    0.0100    0.0100    0.0100
0.0100    0.0100    0.0100    0.0100    0.0100    0.0100    0.0100    0.0100
0.0100    0.0100    0.0100    0.0100    0.0100    0.0100    0.0100    0.0100
0.0100    0.0100    0.0100    0.0100    0.0100    0.0100    0.0100    0.0100
0.0100    0.0100    0.0100    0.0100    0.0100    0.0100    0.0100    0.0100
0.0100    0.0100    0.0100    0.0100    0.0100    0.0100    0.0100    0.0100
0.0100    0.0100    0.0100    0.0100    0.0100    0.0100    0.0100    0.0100
0.0100    0.0100    0.0100    0.0100    0.0100    0.0100    0.0100    0.0100
0.0100    0.0100    0.0100    0.0100    0.0100    0.0100    0.0100    0.0100
0.0100    0.0100    0.0100    0.0100    0.0100    0.0100    0.0100    0.0100
0.0100    0.0100    0.0100    0.0100    0.0100    0.0100    0.0100    0.0100
0.0100    0.0100    0.0100    0.0100    0.0100    0.0100    0.0100    0.0100
0.0100    0.0100    0.0100    0.0100    0.0100    0.0100    0.0100    0.0100
0.0100    0.0100    0.0100    0.0100    0.0100    0.0100    0.0100    0.0100
0.0100    0.0100    0.0100    0.0100    0.0100    0.0100    0.0100    0.0100
0.0100    0.0100    0.0100    0.0100    0.0100    0.0100    0.0100    0.0100
0.0100    0.0100    0.0100    0.0100    0.0100    0.0100    0.0100    0.0100
0.0100    0.0100    0.0100    0.0100    0.0100    0.0100    0.0100    0.0100
0.0100    0.0100    0.0100    0.0100    0.0100    0.0100    0.0100    0.0100
0.0100    0.0100    0.0100    0.0100    0.0100    0.0100    0.0100    0.0100
0.0100    0.0100    0.0100    0.0100    0.0100    0.0100    0.0100    0.0100
0.0100    0.0100    0.0100    0.0100    0.0100    0.0100    0.0100    0.0100
0.0100    0.0100    0.0100    0.0100    0.0100    0.0100    0.0100    0.0100
0.0100    0.0100    0.0100    0.0100    0.0100    0.0100    0.0100    0.0100
0.0100    0.0100    0.0100    0.0100    0.0100    0.0100    0.0100    0.0100
0.0100    0.0100    0.0100    0.0100    0.0100    0.0100    0.0100    0.0100
0.0100    0.0100    0.0100    0.0100    0.0100    0.0100    0.0100    0.0100
0.0100    0.0100    0.0100    0.0100    0.0100    0.0100    0.0100    0.0100
0.0100    0.0100    0.0100    0.0100    0.0100    0.0100    0.0100    0.0100
0.0100    0.0100    0.0100    0.0100    0.0100    0.0100    0.0100    0.0100
0.0100    0.0100    0.0100    0.0100    0.0100    0.0100    0.0100    0.0100
0.0100    0.0100    0.0100    0.0100    0.0100    0.0100    0.0100    0.0100
0.0100    0.0100    0.0100    0.0100    0.0100    0.0100    0.0100    0.0100
0.0100    0.0100    0.0100    0.0100    0.0100    0.0100    0.0100    0.0100
0.0100    0.0100    0.0100    0.0100    0.0100    0.0100    0.0100    0.0100
0.0100    0.0100    0.0100    0.0100    0.0100    0.0100    0.0100    0.0100
0.0100    0.0100    0.0100    0.0100    0.0100    0.0100    0.0100    0.0100
0.0100    0.0100    0.0100    0.0100    0.0100    0.0100    0.0100    0.0100
0.0100    0.0100    0.0100    0.0100    0.0100    0.0100    0.0100    0.0100
0.0100    0.0100    0.0100    0.0100    0.0100    0.0100    0.0100    0.0100
0.0100    0.0100    0.0100    0.0100    0.0100    0.0100    0.0100    0.0100
0.0100    0.0100    0.0100    0.0100    0.0100    0.0100    0.0100    0.0100
0.0100    0.0100    0.0100    0.0100    0.0100    0.0100    0.0100    0.0100
0.0100    0.0100    0.0100    0.0100    0.0100    0.0100    0.0100    0.0100
0.0100    0.0100    0.0100    0.0100    0.0100    0.0100    0.0100    0.0100
0.0100    0.0100    0.0100    0.0100    0.0100    0.0100    0.0100    0.0100
0.0100    0.0100    0.0100    0.0100    0.0100    0.0100    0.0100    0.0100
0.0100    0.0100    0.0100    0.0100    0.0100    0.0100    0.0100    0.0100
0.0100    0.0100    0.0100    0.0100    0.0100    0.0100    0.0100    0.0100
0.0100    0.0100    0.0100    0.0100    0.0100    0.0100    0.0100    0.0100
0.0100    0.0100    0.0100    0.0100    0.0100    0.0100    0.0100    0.0100
0.0100    0.0100    0.0100    0.0100    0.0100    0.0100    0.0100    0.0100
0.0100    0.0100    0.0100    0.0100    0.0100    0.0100    0.0100    0.0100
0.0100    0.0100    0.0100    0.0100    0.0100    0.0100    0.0100    0.0100
0.0100    0.0100    0.0100    0.0100    0.0100    0.0100    0.0100    0.0100
0.0100    0.0100    0.0100    0.0100    0.0100    0.0100    0.0100    0.0100
0.0100    0.0100    0.0100    0.0100    0.0100    0.0100    0.0100    0.0100
0.0100    0.0100    0.0100    0.0100    0.0100    0.0100    0.0100    0.0100
0.0100    0.0100    0.0100    0.0100    0.0100    0.0100    0.0100    0.0100
0.0100    0.0100    0.0100    0.0100    0.0100    0.0100    0.0100    0.0100
0.0100    0.0100    0.0100    0.0100    0.0100    0.0100    0.0100    0.0100
0.0100    0.0100    0.0100    0.0100    0.0100    0.0100    0.0100    0.0100
0.0100    0.0100    0.0100    0.0100    0.0100    0.0100
</PP_RAB>
</PP_MESH>
<PP_LOCAL type="real"  size=" 750" columns="4">
-2.6978855167E+01   -2.6976831342E+01   -2.6970767209E+01   -2.6960684665E+01
-2.6946619465E+01   -2.6928620180E+01   -2.6906746825E+01   -2.6881069234E+01
-2.6851665271E+01   -2.6818618968E+01   -2.6782018666E+01   -2.6741955243E+01
-2.6698520468E+01   -2.6651805541E+01   -2.6601899836E+01   -2.6548889862E+01
-2.6492858444E+01   -2.6433884110E+01   -2.6372040679E+01   -2.6307397021E+01
-2.6240016965E+01   -2.6169959349E+01   -2.6097278164E+01   -2.6022022794E+01
-2.5944238321E+01   -2.5863965877E+01   -2.5781243036E+01   -2.5696104227E+01
-2.5608581158E+01   -2.5518703245E+01   -2.5426498035E+01   -2.5331991619E+01
-2.5235209035E+01   -2.5136174649E+01   -2.5034912512E+01   -2.4931446705E+01
-2.4825801648E+01   -2.4718002390E+01   -2.4608074875E+01   -2.4496046175E+01
-2.4381944706E+01   -2.4265800414E+01   -2.4147644932E+01   -2.4027511719E+01
-2.3905436175E+01   -2.3781455725E+01   -2.3655609892E+01   -2.3527940338E+01
-2.3398490894E+01   -2.3267307564E+01   -2.3134438517E+01   -2.2999934053E+01
-2.2863846567E+01   -2.2726230484E+01   -2.2587142188E+01   -2.2446639943E+01
-2.2304783791E+01   -2.2161635454E+01   -2.2017258216E+01   -2.1871716802E+01
-2.1725077255E+01   -2.1577406799E+01   -2.1428773706E+01   -2.1279247153E+01
-2.1128897084E+01   -2.0977794063E+01   -2.0826009135E+01   -2.0673613680E+01
-2.0520679272E+01   -2.0367277543E+01   -2.0213480043E+01   -2.0059358108E+01
-1.9904982732E+01   -1.9750424441E+01   -1.9595753175E+01   -1.9441038170E+01
-1.9286347855E+01   -1.9131749744E+01   -1.8977310338E+01   -1.8823095040E+01
-1.8669168067E+01   -1.8515592368E+01   -1.8362429560E+01   -1.8209739856E+01
-1.8057582006E+01   -1.7906013247E+01   -1.7755089253E+01   -1.7604864090E+01
-1.7455390184E+01   -1.7306718289E+01   -1.7158897454E+01   -1.7011975010E+01
-1.6865996544E+01   -1.6721005890E+01   -1.6577045117E+01   -1.6434154519E+01
-1.6292372616E+01   -1.6151736146E+01   -1.6012280070E+01   -1.5874037572E+01
-1.5737040063E+01   -1.5601317183E+01   -1.5466896813E+01   -1.5333805074E+01
-1.5202066337E+01   -1.5071703232E+01   -1.4942736645E+01   -1.4815185734E+01
-1.4689067929E+01   -1.4564398932E+01   -1.4441192727E+01   -1.4319461578E+01
-1.4199216025E+01   -1.4080464890E+01   -1.3963215268E+01   -1.3847472520E+01
-1.3733240272E+01   -1.3620520401E+01   -1.3509313024E+01   -1.3399616486E+01
-1.3291427343E+01   -1.3184740345E+01   -1.3079548417E+01   -1.2975842633E+01
-1.2873612199E+01   -1.2772844418E+01   -1.2673524669E+01   -1.2575636372E+01
-1.2479160961E+01   -1.2384077833E+01   -1.2290364397E+01   -1.2197995805E+01
-1.2106945201E+01   -1.2017184952E+01   -1.1928687717E+01   -1.1841427317E+01
-1.1755378431E+01   -1.1670516569E+01   -1.1586818055E+01   -1.1504259991E+01
-1.1422820219E+01   -1.1342477288E+01   -1.1263210420E+01   -1.1184999478E+01
-1.1107824933E+01   -1.1031667839E+01   -1.0956509794E+01   -1.0882332923E+01
-1.0809119842E+01   -1.0736853635E+01   -1.0665517828E+01   -1.0595096367E+01
-1.0525573589E+01   -1.0456934204E+01   -1.0389163273E+01   -1.0322246186E+01
-1.0256168640E+01   -1.0190916627E+01   -1.0126476407E+01   -1.0062834498E+01
-9.9999776583E+00   -9.9378928672E+00   -9.8765673146E+00   -9.8159883857E+00
-9.7561436476E+00   -9.6970208378E+00   -9.6386078529E+00   -9.5808927373E+00
-9.5238636731E+00   -9.4675089725E+00   -9.4118170650E+00   -9.3567765064E+00
-9.3023760003E+00   -9.2486044257E+00   -9.1954509118E+00   -9.1429048742E+00
-9.0909559670E+00   -9.0395940653E+00   -8.9888092749E+00   -8.9385919235E+00
-8.8889325536E+00   -8.8398219165E+00   -8.7912509669E+00   -8.7432108573E+00
-8.6956929324E+00   -8.6486887241E+00   -8.6021899464E+00   -8.5561884906E+00
-8.5106764205E+00   -8.4656459679E+00   -8.4210895281E+00   -8.3769996556E+00
-8.3333690602E+00   -8.2901906026E+00   -8.2474572909E+00   -8.2051622765E+00
-8.1632988505E+00   -8.1218604405E+00   -8.0808406066E+00   -8.0402330385E+00
-8.0000315521E+00   -7.9602300863E+00   -7.9208227000E+00   -7.8818035693E+00
-7.8431669845E+00   -7.8049073471E+00   -7.7670191676E+00   -7.7294970623E+00
-7.6923357512E+00   -7.6555300554E+00   -7.6190748946E+00   -7.5829652846E+00
-7.5471963357E+00   -7.5117632495E+00   -7.4766613177E+00   -7.4418859194E+00
-7.4074325194E+00   -7.3732966659E+00   -7.3394739890E+00   -7.3059601985E+00
-7.2727510822E+00   -7.2398425043E+00   -7.2072304033E+00   -7.1749107906E+00
-7.1428797490E+00   -7.1111334307E+00   -7.0796680562E+00   -7.0484799126E+00
-7.0175653518E+00   -6.9869207900E+00   -6.9565427052E+00   -6.9264276367E+00
-6.8965721833E+00   -6.8669730024E+00   -6.8376268082E+00   -6.8085303712E+00
-6.7796805165E+00   -6.7510741226E+00   -6.7227081207E+00   -6.6945794933E+00
-6.6666852731E+00   -6.6390225422E+00   -6.6115884308E+00   -6.5843801165E+00
-6.5573948230E+00   -6.5306298194E+00   -6.5040824192E+00   -6.4777499794E+00
-6.4516298996E+00   -6.4257196213E+00   -6.4000166268E+00   -6.3745184386E+00
-6.3492226185E+00   -6.3241267668E+00   -6.2992285217E+00   -6.2745255583E+00
-6.2500155882E+00   -6.2256963585E+00   -6.2015656512E+00   -6.1776212828E+00
-6.1538611030E+00   -6.1302829948E+00   -6.1068848733E+00   -6.0836646855E+00
-6.0606204094E+00   -6.0377500534E+00   -6.0150516560E+00   -5.9925232852E+00
-5.9701630375E+00   -5.9479690381E+00   -5.9259394397E+00   -5.9040724223E+00
-5.8823661927E+00   -5.8608189840E+00   -5.8394290552E+00   -5.8181946903E+00
-5.7971141985E+00   -5.7761859133E+00   -5.7554081921E+00   -5.7347794160E+00
-5.7142979890E+00   -5.6939623381E+00   -5.6737709125E+00   -5.6537221831E+00
-5.6338146428E+00   -5.6140468051E+00   -5.5944172048E+00   -5.5749243969E+00
-5.5555669563E+00   -5.5363434779E+00   -5.5172525758E+00   -5.4982928833E+00
-5.4794630524E+00   -5.4607617533E+00   -5.4421876745E+00   -5.4237395222E+00
-5.4054160202E+00   -5.3872159094E+00   -5.3691379475E+00   -5.3511809089E+00
-5.3333435844E+00   -5.3156247809E+00   -5.2980233209E+00   -5.2805380427E+00
-5.2631677997E+00   -5.2459114604E+00   -5.2287679081E+00   -5.2117360407E+00
-5.1948147702E+00   -5.1780030229E+00   -5.1612997390E+00   -5.1447038720E+00
-5.1282143893E+00   -5.1118302711E+00   -5.0955505107E+00   -5.0793741142E+00
-5.0633001004E+00   -5.0473275003E+00   -5.0314553572E+00   -5.0156827263E+00
-5.0000086747E+00   -4.9844322811E+00   -4.9689526356E+00   -4.9535688397E+00
-4.9382800058E+00   -4.9230852573E+00   -4.9079837285E+00   -4.8929745641E+00
-4.8780569193E+00   -4.8632299595E+00   -4.8484928604E+00   -4.8338448075E+00
-4.8192849962E+00   -4.8048126315E+00   -4.7904269279E+00   -4.7761271094E+00
-4.7619124091E+00   -4.7477820693E+00   -4.7337353413E+00   -4.7197714851E+00
-4.7058897694E+00   -4.6920894717E+00   -4.6783698777E+00   -4.6647302816E+00
-4.6511699856E+00   -4.6376883004E+00   -4.6242845441E+00   -4.6109580432E+00
-4.5977081316E+00   -4.5845341509E+00   -4.5714354503E+00   -4.5584113864E+00
-4.5454613231E+00   -4.5325846314E+00   -4.5197806896E+00   -4.5070488829E+00
-4.4943886033E+00   -4.4817992499E+00   -4.4692802283E+00   -4.4568309507E+00
-4.4444508359E+00   -4.4321393092E+00   -4.4198958022E+00   -4.4077197526E+00
-4.3956106047E+00   -4.3835678083E+00   -4.3715908198E+00   -4.3596791011E+00
-4.3478321202E+00   -4.3360493507E+00   -4.3243302721E+00   -4.3126743692E+00
-4.3010811326E+00   -4.2895500583E+00   -4.2780806476E+00   -4.2666724072E+00
-4.2553248492E+00   -4.2440374905E+00   -4.2328098534E+00   -4.2216414652E+00
-4.2105318581E+00   -4.1994805694E+00   -4.1884871409E+00   -4.1775511194E+00
-4.1666720566E+00   -4.1558495084E+00   -4.1450830358E+00   -4.1343722040E+00
-4.1237165828E+00   -4.1131157464E+00   -4.1025692734E+00   -4.0920767466E+00
-4.0816377532E+00   -4.0712518847E+00   -4.0609187363E+00   -4.0506379079E+00
-4.0404090029E+00   -4.0302316290E+00   -4.0201053978E+00   -4.0100299248E+00
-4.0000048292E+00   -3.9900297342E+00   -3.9801042667E+00   -3.9702280571E+00
-3.9604007398E+00   -3.9506219526E+00   -3.9408913368E+00   -3.9312085374E+00
-3.9215732028E+00   -3.9119849848E+00   -3.9024435388E+00   -3.8929485232E+00
-3.8834996000E+00   -3.8740964344E+00   -3.8647386948E+00   -3.8554260528E+00
-3.8461581833E+00   -3.8369347640E+00   -3.8277554760E+00   -3.8186200034E+00
-3.8095280330E+00   -3.8004792550E+00   -3.7914733623E+00   -3.7825100507E+00
-3.7735890189E+00   -3.7647099686E+00   -3.7558726040E+00   -3.7470766324E+00
-3.7383217634E+00   -3.7296077098E+00   -3.7209341867E+00   -3.7123009121E+00
-3.7037076064E+00   -3.6951539927E+00   -3.6866397967E+00   -3.6781647465E+00
-3.6697285727E+00   -3.6613310085E+00   -3.6529717893E+00   -3.6446506533E+00
-3.6363673407E+00   -3.6281215942E+00   -3.6199131588E+00   -3.6117417819E+00
-3.6036072130E+00   -3.5955092041E+00   -3.5874475092E+00   -3.5794218846E+00
-3.5714320887E+00   -3.5634778821E+00   -3.5555590277E+00   -3.5476752902E+00
-3.5398264365E+00   -3.5320122357E+00   -3.5242324588E+00   -3.5164868787E+00
-3.5087752705E+00   -3.5010974112E+00   -3.4934530797E+00   -3.4858420570E+00
-3.4782641256E+00   -3.4707190704E+00   -3.4632066779E+00   -3.4557267363E+00
-3.4482790359E+00   -3.4408633687E+00   -3.4334795284E+00   -3.4261273107E+00
-3.4188065127E+00   -3.4115169335E+00   -3.4042583739E+00   -3.3970306362E+00
-3.3898335246E+00   -3.3826668448E+00   -3.3755304042E+00   -3.3684240118E+00
-3.3613474783E+00   -3.3543006158E+00   -3.3472832381E+00   -3.3402951606E+00
-3.3333362002E+00   -3.3264061751E+00   -3.3195049055E+00   -3.3126322125E+00
-3.3057879192E+00   -3.2989718498E+00   -3.2921838301E+00   -3.2854236873E+00
-3.2786912501E+00   -3.2719863484E+00   -3.2653088138E+00   -3.2586584789E+00
-3.2520351779E+00   -3.2454387464E+00   -3.2388690211E+00   -3.2323258402E+00
-3.2258090432E+00   -3.2193184707E+00   -3.2128539648E+00   -3.2064153688E+00
-3.2000025272E+00   -3.1936152859E+00   -3.1872534917E+00   -3.1809169930E+00
-3.1746056392E+00   -3.1683192809E+00   -3.1620577699E+00   -3.1558209591E+00
-3.1496087028E+00   -3.1434208562E+00   -3.1372572756E+00   -3.1311178187E+00
-3.1250023442E+00   -3.1189107116E+00   -3.1128427819E+00   -3.1067984171E+00
-3.1007774801E+00   -3.0947798349E+00   -3.0888053467E+00   -3.0828538816E+00
-3.0769253068E+00   -3.0710194905E+00   -3.0651363018E+00   -3.0592756111E+00
-3.0534372894E+00   -3.0476212090E+00   -3.0418272430E+00   -3.0360552655E+00
-3.0303051517E+00   -3.0245767774E+00   -3.0188700196E+00   -3.0131847563E+00
-3.0075208662E+00   -3.0018782289E+00   -2.9962567252E+00   -2.9906562365E+00
-2.9850766452E+00   -2.9795178345E+00   -2.9739796885E+00   -2.9684620923E+00
-2.9629649317E+00   -2.9574880933E+00   -2.9520314647E+00   -2.9465949342E+00
-2.9411783910E+00   -2.9357817250E+00   -2.9304048271E+00   -2.9250475888E+00
-2.9197099025E+00   -2.9143916613E+00   -2.9090927593E+00   -2.9038130910E+00
-2.8985525520E+00   -2.8933110385E+00   -2.8880884474E+00   -2.8828846766E+00
-2.8776996243E+00   -2.8725331899E+00   -2.8673852732E+00   -2.8622557748E+00
-2.8571445961E+00   -2.8520516390E+00   -2.8469768065E+00   -2.8419200017E+00
-2.8368811290E+00   -2.8318600929E+00   -2.8268567991E+00   -2.8218711536E+00
-2.8169030633E+00   -2.8119524355E+00   -2.8070191783E+00   -2.8021032005E+00
-2.7972044115E+00   -2.7923227213E+00   -2.7874580404E+00   -2.7826102803E+00
-2.7777793526E+00   -2.7729651700E+00   -2.7681676454E+00   -2.7633866927E+00
-2.7586222260E+00   -2.7538741602E+00   -2.7491424109E+00   -2.7444268940E+00
-2.7397275261E+00   -2.7350442245E+00   -2.7303769069E+00   -2.7257254916E+00
-2.7210898975E+00   -2.7164700439E+00   -2.7118658509E+00   -2.7072772389E+00
-2.7027041290E+00   -2.6981464428E+00   -2.6936041024E+00   -2.6890770304E+00
-2.6845651499E+00   -2.6800683846E+00   -2.6755866586E+00   -2.6711198968E+00
-2.6666680241E+00   -2.6622309664E+00   -2.6578086497E+00   -2.6534010008E+00
-2.6490079468E+00   -2.6446294153E+00   -2.6402653344E+00   -2.6359156327E+00
-2.6315802393E+00   -2.6272590836E+00   -2.6229520957E+00   -2.6186592059E+00
-2.6143803453E+00   -2.6101154450E+00   -2.6058644370E+00   -2.6016272534E+00
-2.5974038269E+00   -2.5931940906E+00   -2.5889979781E+00   -2.5848154234E+00
-2.5806463607E+00   -2.5764907250E+00   -2.5723484516E+00   -2.5682194759E+00
-2.5641037342E+00   -2.5600011629E+00   -2.5559116988E+00   -2.5518352793E+00
-2.5477718421E+00   -2.5437213252E+00   -2.5396836671E+00   -2.5356588067E+00
-2.5316466832E+00   -2.5276472362E+00   -2.5236604058E+00   -2.5196861324E+00
-2.5157243567E+00   -2.5117750199E+00   -2.5078380635E+00   -2.5039134294E+00
-2.5000010597E+00   -2.4961008972E+00   -2.4922128847E+00   -2.4883369655E+00
-2.4844730835E+00   -2.4806211824E+00   -2.4767812068E+00   -2.4729531013E+00
-2.4691368109E+00   -2.4653322811E+00   -2.4615394576E+00   -2.4577582863E+00
-2.4539887138E+00   -2.4502306867E+00   -2.4464841520E+00   -2.4427490572E+00
-2.4390253499E+00   -2.4353129781E+00   -2.4316118900E+00   -2.4279220345E+00
-2.4242433604E+00   -2.4205758169E+00   -2.4169193536E+00   -2.4132739203E+00
-2.4096394674E+00   -2.4060159451E+00   -2.4024033043E+00   -2.3988014960E+00
-2.3952104716E+00   -2.3916301827E+00   -2.3880605812E+00   -2.3845016195E+00
-2.3809532498E+00   -2.3774154252E+00   -2.3738880985E+00   -2.3703712232E+00
-2.3668647529E+00   -2.3633686414E+00   -2.3598828430E+00   -2.3564073120E+00
-2.3529420032E+00   -2.3494868715E+00   -2.3460418722E+00   -2.3426069608E+00