2
Lattice="8.46683536902 0.0 0.0 0.0 8.46683536902 0.0 0.0 0.0 8.46683536902" Properties=species:S:1:pos:R:3:Z:I:1 Energy=T pbc="T T T"
O      4.23341768       4.23341768       4.84067768        8 
O      4.23341768       4.23341768       3.62615768        8 
