<UPF version="2.0.1">
<PP_INFO>

This pseudopotential file has been produced using the code
ONCVPSP  (Optimized Norm-Conservinng Vanderbilt PSeudopotential)
scalar-relativistic version 3.3.0 08/16/2017 by D. R. Hamann
The code is available through a link at URL www.mat-simresearch.com.
Documentation with the package provides a full discription of the
input data below.


While it is not required under the terms of the GNU GPL, it is
suggested that you cite D. R. Hamann, Phys. Rev. B 88, 085117 (2013)
in any publication using these pseudopotentials.

<PP_INPUTFILE>
# ATOM AND REFERENCE CONFIGURATION
# atsym  z   nc   nv     iexc    psfile
Ar 18.00    3    2       4      upf
#
#   n    l    f        energy (Ha)
1    0    2.00
2    0    2.00
2    1    6.00
3    0    2.00
3    1    6.00
#
# PSEUDOPOTENTIAL AND OPTIMIZATION
# lmax
2
#
#   l,   rc,      ep,       ncon, nbas, qcut
0   1.55000  -0.89253    4    8   8.20000
1   1.55000  -0.37741    4    8   8.20000
2   1.55000   0.10000    4    8   8.20000
#
# LOCAL POTENTIAL
# lloc, lpopt,  rc(5),   dvloc0
4    5   1.50000      0.00000
#
# VANDERBILT-KLEINMAN-BYLANDER PROJECTORs
# l, nproj, debl
0    2   1.50000
1    2   1.50000
2    2   1.00000
#
# MODEL CORE CHARGE
# icmod, fcfact, rcfact
3   7.00000   1.25000
#
# LOG DERIVATIVE ANALYSIS
# epsh1, epsh2, depsh
-12.00   12.00    0.02
#
# OUTPUT GRID
# rlmax, drl
4.00    0.01
#
# TEST CONFIGURATIONS
# ncnf
0
# nvcnf
#   n    l    f
</PP_INPUTFILE>
</PP_INFO>
<!--                               -->
<!-- END OF HUMAN READABLE SECTION -->
<!--                               -->
<PP_HEADER
generated="Generated using ONCVPSP code by D. R. Hamann"
author="anonymous"
date="171031"
comment=""
element="Ar"
pseudo_type="NC"
relativistic="scalar"
is_ultrasoft="F"
is_paw="F"
is_coulomb="F"
has_so="F"
has_wfc="F"
has_gipaw="F"
core_correction="T"
functional="PBE"
z_valence="    8.00"
total_psenergy="  -4.23183523275E+01"
rho_cutoff="   9.37000000000E+00"
l_max="2"
l_local="-1"
mesh_size="   938"
number_of_wfc="2"
number_of_proj="6"/>
<PP_MESH>
<PP_R type="real"  size=" 938" columns="8">
0.0000    0.0100    0.0200    0.0300    0.0400    0.0500    0.0600    0.0700
0.0800    0.0900    0.1000    0.1100    0.1200    0.1300    0.1400    0.1500
0.1600    0.1700    0.1800    0.1900    0.2000    0.2100    0.2200    0.2300
0.2400    0.2500    0.2600    0.2700    0.2800    0.2900    0.3000    0.3100
0.3200    0.3300    0.3400    0.3500    0.3600    0.3700    0.3800    0.3900
0.4000    0.4100    0.4200    0.4300    0.4400    0.4500    0.4600    0.4700
0.4800    0.4900    0.5000    0.5100    0.5200    0.5300    0.5400    0.5500
0.5600    0.5700    0.5800    0.5900    0.6000    0.6100    0.6200    0.6300
0.6400    0.6500    0.6600    0.6700    0.6800    0.6900    0.7000    0.7100
0.7200    0.7300    0.7400    0.7500    0.7600    0.7700    0.7800    0.7900
0.8000    0.8100    0.8200    0.8300    0.8400    0.8500    0.8600    0.8700
0.8800    0.8900    0.9000    0.9100    0.9200    0.9300    0.9400    0.9500
0.9600    0.9700    0.9800    0.9900    1.0000    1.0100    1.0200    1.0300
1.0400    1.0500    1.0600    1.0700    1.0800    1.0900    1.1000    1.1100
1.1200    1.1300    1.1400    1.1500    1.1600    1.1700    1.1800    1.1900
1.2000    1.2100    1.2200    1.2300    1.2400    1.2500    1.2600    1.2700
1.2800    1.2900    1.3000    1.3100    1.3200    1.3300    1.3400    1.3500
1.3600    1.3700    1.3800    1.3900    1.4000    1.4100    1.4200    1.4300
1.4400    1.4500    1.4600    1.4700    1.4800    1.4900    1.5000    1.5100
1.5200    1.5300    1.5400    1.5500    1.5600    1.5700    1.5800    1.5900
1.6000    1.6100    1.6200    1.6300    1.6400    1.6500    1.6600    1.6700
1.6800    1.6900    1.7000    1.7100    1.7200    1.7300    1.7400    1.7500
1.7600    1.7700    1.7800    1.7900    1.8000    1.8100    1.8200    1.8300
1.8400    1.8500    1.8600    1.8700    1.8800    1.8900    1.9000    1.9100
1.9200    1.9300    1.9400    1.9500    1.9600    1.9700    1.9800    1.9900
2.0000    2.0100    2.0200    2.0300    2.0400    2.0500    2.0600    2.0700
2.0800    2.0900    2.1000    2.1100    2.1200    2.1300    2.1400    2.1500
2.1600    2.1700    2.1800    2.1900    2.2000    2.2100    2.2200    2.2300
2.2400    2.2500    2.2600    2.2700    2.2800    2.2900    2.3000    2.3100
2.3200    2.3300    2.3400    2.3500    2.3600    2.3700    2.3800    2.3900
2.4000    2.4100    2.4200    2.4300    2.4400    2.4500    2.4600    2.4700
2.4800    2.4900    2.5000    2.5100    2.5200    2.5300    2.5400    2.5500
2.5600    2.5700    2.5800    2.5900    2.6000    2.6100    2.6200    2.6300
2.6400    2.6500    2.6600    2.6700    2.6800    2.6900    2.7000    2.7100
2.7200    2.7300    2.7400    2.7500    2.7600    2.7700    2.7800    2.7900
2.8000    2.8100    2.8200    2.8300    2.8400    2.8500    2.8600    2.8700
2.8800    2.8900    2.9000    2.9100    2.9200    2.9300    2.9400    2.9500
2.9600    2.9700    2.9800    2.9900    3.0000    3.0100    3.0200    3.0300
3.0400    3.0500    3.0600    3.0700    3.0800    3.0900    3.1000    3.1100
3.1200    3.1300    3.1400    3.1500    3.1600    3.1700    3.1800    3.1900
3.2000    3.2100    3.2200    3.2300    3.2400    3.2500    3.2600    3.2700
3.2800    3.2900    3.3000    3.3100    3.3200    3.3300    3.3400    3.3500
3.3600    3.3700    3.3800    3.3900    3.4000    3.4100    3.4200    3.4300
3.4400    3.4500    3.4600    3.4700    3.4800    3.4900    3.5000    3.5100
3.5200    3.5300    3.5400    3.5500    3.5600    3.5700    3.5800    3.5900
3.6000    3.6100    3.6200    3.6300    3.6400    3.6500    3.6600    3.6700
3.6800    3.6900    3.7000    3.7100    3.7200    3.7300    3.7400    3.7500
3.7600    3.7700    3.7800    3.7900    3.8000    3.8100    3.8200    3.8300
3.8400    3.8500    3.8600    3.8700    3.8800    3.8900    3.9000    3.9100
3.9200    3.9300    3.9400    3.9500    3.9600    3.9700    3.9800    3.9900
4.0000    4.0100    4.0200    4.0300    4.0400    4.0500    4.0600    4.0700
4.0800    4.0900    4.1000    4.1100    4.1200    4.1300    4.1400    4.1500
4.1600    4.1700    4.1800    4.1900    4.2000    4.2100    4.2200    4.2300
4.2400    4.2500    4.2600    4.2700    4.2800    4.2900    4.3000    4.3100
4.3200    4.3300    4.3400    4.3500    4.3600    4.3700    4.3800    4.3900
4.4000    4.4100    4.4200    4.4300    4.4400    4.4500    4.4600    4.4700
4.4800    4.4900    4.5000    4.5100    4.5200    4.5300    4.5400    4.5500
4.5600    4.5700    4.5800    4.5900    4.6000    4.6100    4.6200    4.6300
4.6400    4.6500    4.6600    4.6700    4.6800    4.6900    4.7000    4.7100
4.7200    4.7300    4.7400    4.7500    4.7600    4.7700    4.7800    4.7900
4.8000    4.8100    4.8200    4.8300    4.8400    4.8500    4.8600    4.8700
4.8800    4.8900    4.9000    4.9100    4.9200    4.9300    4.9400    4.9500
4.9600    4.9700    4.9800    4.9900    5.0000    5.0100    5.0200    5.0300
5.0400    5.0500    5.0600    5.0700    5.0800    5.0900    5.1000    5.1100
5.1200    5.1300    5.1400    5.1500    5.1600    5.1700    5.1800    5.1900
5.2000    5.2100    5.2200    5.2300    5.2400    5.2500    5.2600    5.2700
5.2800    5.2900    5.3000    5.3100    5.3200    5.3300    5.3400    5.3500
5.3600    5.3700    5.3800    5.3900    5.4000    5.4100    5.4200    5.4300
5.4400    5.4500    5.4600    5.4700    5.4800    5.4900    5.5000    5.5100
5.5200    5.5300    5.5400    5.5500    5.5600    5.5700    5.5800    5.5900
5.6000    5.6100    5.6200    5.6300    5.6400    5.6500    5.6600    5.6700
5.6800    5.6900    5.7000    5.7100    5.7200    5.7300    5.7400    5.7500
5.7600    5.7700    5.7800    5.7900    5.8000    5.8100    5.8200    5.8300
5.8400    5.8500    5.8600    5.8700    5.8800    5.8900    5.9000    5.9100
5.9200    5.9300    5.9400    5.9500    5.9600    5.9700    5.9800    5.9900
6.0000    6.0100    6.0200    6.0300    6.0400    6.0500    6.0600    6.0700
6.0800    6.0900    6.1000    6.1100    6.1200    6.1300    6.1400    6.1500
6.1600    6.1700    6.1800    6.1900    6.2000    6.2100    6.2200    6.2300
6.2400    6.2500    6.2600    6.2700    6.2800    6.2900    6.3000    6.3100
6.3200    6.3300    6.3400    6.3500    6.3600    6.3700    6.3800    6.3900
6.4000    6.4100    6.4200    6.4300    6.4400    6.4500    6.4600    6.4700
6.4800    6.4900    6.5000    6.5100    6.5200    6.5300    6.5400    6.5500
6.5600    6.5700    6.5800    6.5900    6.6000    6.6100    6.6200    6.6300
6.6400    6.6500    6.6600    6.6700    6.6800    6.6900    6.7000    6.7100
6.7200    6.7300    6.7400    6.7500    6.7600    6.7700    6.7800    6.7900
6.8000    6.8100    6.8200    6.8300    6.8400    6.8500    6.8600    6.8700
6.8800    6.8900    6.9000    6.9100    6.9200    6.9300    6.9400    6.9500
6.9600    6.9700    6.9800    6.9900    7.0000    7.0100    7.0200    7.0300
7.0400    7.0500    7.0600    7.0700    7.0800    7.0900    7.1000    7.1100
7.1200    7.1300    7.1400    7.1500    7.1600    7.1700    7.1800    7.1900
7.2000    7.2100    7.2200    7.2300    7.2400    7.2500    7.2600    7.2700
7.2800    7.2900    7.3000    7.3100    7.3200    7.3300    7.3400    7.3500
7.3600    7.3700    7.3800    7.3900    7.4000    7.4100    7.4200    7.4300
7.4400    7.4500    7.4600    7.4700    7.4800    7.4900    7.5000    7.5100
7.5200    7.5300    7.5400    7.5500    7.5600    7.5700    7.5800    7.5900
7.6000    7.6100    7.6200    7.6300    7.6400    7.6500    7.6600    7.6700
7.6800    7.6900    7.7000    7.7100    7.7200    7.7300    7.7400    7.7500
7.7600    7.7700    7.7800    7.7900    7.8000    7.8100    7.8200    7.8300
7.8400    7.8500    7.8600    7.8700    7.8800    7.8900    7.9000    7.9100
7.9200    7.9300    7.9400    7.9500    7.9600    7.9700    7.9800    7.9900
8.0000    8.0100    8.0200    8.0300    8.0400    8.0500    8.0600    8.0700
8.0800    8.0900    8.1000    8.1100    8.1200    8.1300    8.1400    8.1500
8.1600    8.1700    8.1800    8.1900    8.2000    8.2100    8.2200    8.2300
8.2400    8.2500    8.2600    8.2700    8.2800    8.2900    8.3000    8.3100
8.3200    8.3300    8.3400    8.3500    8.3600    8.3700    8.3800    8.3900
8.4000    8.4100    8.4200    8.4300    8.4400    8.4500    8.4600    8.4700
8.4800    8.4900    8.5000    8.5100    8.5200    8.5300    8.5400    8.5500
8.5600    8.5700    8.5800    8.5900    8.6000    8.6100    8.6200    8.6300
8.6400    8.6500    8.6600    8.6700    8.6800    8.6900    8.7000    8.7100
8.7200    8.7300    8.7400    8.7500    8.7600    8.7700    8.7800    8.7900
8.8000    8.8100    8.8200    8.8300    8.8400    8.8500    8.8600    8.8700
8.8800    8.8900    8.9000    8.9100    8.9200    8.9300    8.9400    8.9500
8.9600    8.9700    8.9800    8.9900    9.0000    9.0100    9.0200    9.0300
9.0400    9.0500    9.0600    9.0700    9.0800    9.0900    9.1000    9.1100
9.1200    9.1300    9.1400    9.1500    9.1600    9.1700    9.1800    9.1900
9.2000    9.2100    9.2200    9.2300    9.2400    9.2500    9.2600    9.2700
9.2800    9.2900    9.3000    9.3100    9.3200    9.3300    9.3400    9.3500
9.3600    9.3700
</PP_R>
<PP_RAB type="real"  size=" 938" columns="8">
0.0100    0.0100    0.0100    0.0100    0.0100    0.0100    0.0100    0.0100
0.0100    0.0100    0.0100    0.0100    0.0100    0.0100    0.0100    0.0100
0.0100    0.0100    0.0100    0.0100    0.0100    0.0100    0.0100    0.0100
0.0100    0.0100    0.0100    0.0100    0.0100    0.0100    0.0100    0.0100
0.0100    0.0100    0.0100    0.0100    0.0100    0.0100    0.0100    0.0100
0.0100    0.0100    0.0100    0.0100    0.0100    0.0100    0.0100    0.0100
0.0100    0.0100    0.0100    0.0100    0.0100    0.0100    0.0100    0.0100
0.0100    0.0100    0.0100    0.0100    0.0100    0.0100    0.0100    0.0100
0.0100    0.0100    0.0100    0.0100    0.0100    0.0100    0.0100    0.0100
0.0100    0.0100    0.0100    0.0100    0.0100    0.0100    0.0100    0.0100
0.0100    0.0100    0.0100    0.0100    0.0100    0.0100    0.0100    0.0100
0.0100    0.0100    0.0100    0.0100    0.0100    0.0100    0.0100    0.0100
0.0100    0.0100    0.0100    0.0100    0.0100    0.0100    0.0100    0.0100
0.0100    0.0100    0.0100    0.0100    0.0100    0.0100    0.0100    0.0100
0.0100    0.0100    0.0100    0.0100    0.0100    0.0100    0.0100    0.0100
0.0100    0.0100    0.0100    0.0100    0.0100    0.0100    0.0100    0.0100
0.0100    0.0100    0.0100    0.0100    0.0100    0.0100    0.0100    0.0100
0.0100    0.0100    0.0100    0.0100    0.0100    0.0100    0.0100    0.0100
0.0100    0.0100    0.0100    0.0100    0.0100    0.0100    0.0100    0.0100
0.0100    0.0100    0.0100    0.0100    0.0100    0.0100    0.0100    0.0100
0.0100    0.0100    0.0100    0.0100    0.0100    0.0100    0.0100    0.0100
0.0100    0.0100    0.0100    0.0100    0.0100    0.0100    0.0100    0.0100
0.0100    0.0100    0.0100    0.0100    0.0100    0.0100    0.0100    0.0100
0.0100    0.0100    0.0100    0.0100    0.0100    0.0100    0.0100    0.0100
0.0100    0.0100    0.0100    0.0100    0.0100    0.0100    0.0100    0.0100
0.0100    0.0100    0.0100    0.0100    0.0100    0.0100    0.0100    0.0100
0.0100    0.0100    0.0100    0.0100    0.0100    0.0100    0.0100    0.0100
0.0100    0.0100    0.0100    0.0100    0.0100    0.0100    0.0100    0.0100
0.0100    0.0100    0.0100    0.0100    0.0100    0.0100    0.0100    0.0100
0.0100    0.0100    0.0100    0.0100    0.0100    0.0100    0.0100    0.0100
0.0100    0.0100    0.0100    0.0100    0.0100    0.0100    0.0100    0.0100
0.0100    0.0100    0.0100    0.0100    0.0100    0.0100    0.0100    0.0100
0.0100    0.0100    0.0100    0.0100    0.0100    0.0100    0.0100    0.0100
0.0100    0.0100    0.0100    0.0100    0.0100    0.0100    0.0100    0.0100
0.0100    0.0100    0.0100    0.0100    0.0100    0.0100    0.0100    0.0100
0.0100    0.0100    0.0100    0.0100    0.0100    0.0100    0.0100    0.0100
0.0100    0.0100    0.0100    0.0100    0.0100    0.0100    0.0100    0.0100
0.0100    0.0100    0.0100    0.0100    0.0100    0.0100    0.0100    0.0100
0.0100    0.0100    0.0100    0.0100    0.0100    0.0100    0.0100    0.0100
0.0100    0.0100    0.0100    0.0100    0.0100    0.0100    0.0100    0.0100
0.0100    0.0100    0.0100    0.0100    0.0100    0.0100    0.0100    0.0100
0.0100    0.0100    0.0100    0.0100    0.0100    0.0100    0.0100    0.0100
0.0100    0.0100    0.0100    0.0100    0.0100    0.0100    0.0100    0.0100
0.0100    0.0100    0.0100    0.0100    0.0100    0.0100    0.0100    0.0100
0.0100    0.0100    0.0100    0.0100    0.0100    0.0100    0.0100    0.0100
0.0100    0.0100    0.0100    0.0100    0.0100    0.0100    0.0100    0.0100
0.0100    0.0100    0.0100    0.0100    0.0100    0.0100    0.0100    0.0100
0.0100    0.0100    0.0100    0.0100    0.0100    0.0100    0.0100    0.0100
0.0100    0.0100    0.0100    0.0100    0.0100    0.0100    0.0100    0.0100
0.0100    0.0100    0.0100    0.0100    0.0100    0.0100    0.0100    0.0100
0.0100    0.0100    0.0100    0.0100    0.0100    0.0100    0.0100    0.0100
0.0100    0.0100    0.0100    0.0100    0.0100    0.0100    0.0100    0.0100
0.0100    0.0100    0.0100    0.0100    0.0100    0.0100    0.0100    0.0100
0.0100    0.0100    0.0100    0.0100    0.0100    0.0100    0.0100    0.0100
0.0100    0.0100    0.0100    0.0100    0.0100    0.0100    0.0100    0.0100
0.0100    0.0100    0.0100    0.0100    0.0100    0.0100    0.0100    0.0100
0.0100    0.0100    0.0100    0.0100    0.0100    0.0100    0.0100    0.0100
0.0100    0.0100    0.0100    0.0100    0.0100    0.0100    0.0100    0.0100
0.0100    0.0100    0.0100    0.0100    0.0100    0.0100    0.0100    0.0100
0.0100    0.0100    0.0100    0.0100    0.0100    0.0100    0.0100    0.0100
0.0100    0.0100    0.0100    0.0100    0.0100    0.0100    0.0100    0.0100
0.0100    0.0100    0.0100    0.0100    0.0100    0.0100    0.0100    0.0100
0.0100    0.0100    0.0100    0.0100    0.0100    0.0100    0.0100    0.0100
0.0100    0.0100    0.0100    0.0100    0.0100    0.0100    0.0100    0.0100
0.0100    0.0100    0.0100    0.0100    0.0100    0.0100    0.0100    0.0100
0.0100    0.0100    0.0100    0.0100    0.0100    0.0100    0.0100    0.0100
0.0100    0.0100    0.0100    0.0100    0.0100    0.0100    0.0100    0.0100
0.0100    0.0100    0.0100    0.0100    0.0100    0.0100    0.0100    0.0100
0.0100    0.0100    0.0100    0.0100    0.0100    0.0100    0.0100    0.0100
0.0100    0.0100    0.0100    0.0100    0.0100    0.0100    0.0100    0.0100
0.0100    0.0100    0.0100    0.0100    0.0100    0.0100    0.0100    0.0100
0.0100    0.0100    0.0100    0.0100    0.0100    0.0100    0.0100    0.0100
0.0100    0.0100    0.0100    0.0100    0.0100    0.0100    0.0100    0.0100
0.0100    0.0100    0.0100    0.0100    0.0100    0.0100    0.0100    0.0100
0.0100    0.0100    0.0100    0.0100    0.0100    0.0100    0.0100    0.0100
0.0100    0.0100    0.0100    0.0100    0.0100    0.0100    0.0100    0.0100
0.0100    0.0100    0.0100    0.0100    0.0100    0.0100    0.0100    0.0100
0.0100    0.0100    0.0100    0.0100    0.0100    0.0100    0.0100    0.0100
0.0100    0.0100    0.0100    0.0100    0.0100    0.0100    0.0100    0.0100
0.0100    0.0100    0.0100    0.0100    0.0100    0.0100    0.0100    0.0100
0.0100    0.0100    0.0100    0.0100    0.0100    0.0100    0.0100    0.0100
0.0100    0.0100    0.0100    0.0100    0.0100    0.0100    0.0100    0.0100
0.0100    0.0100    0.0100    0.0100    0.0100    0.0100    0.0100    0.0100
0.0100    0.0100    0.0100    0.0100    0.0100    0.0100    0.0100    0.0100
0.0100    0.0100    0.0100    0.0100    0.0100    0.0100    0.0100    0.0100
0.0100    0.0100    0.0100    0.0100    0.0100    0.0100    0.0100    0.0100
0.0100    0.0100    0.0100    0.0100    0.0100    0.0100    0.0100    0.0100
0.0100    0.0100    0.0100    0.0100    0.0100    0.0100    0.0100    0.0100
0.0100    0.0100    0.0100    0.0100    0.0100    0.0100    0.0100    0.0100
0.0100    0.0100    0.0100    0.0100    0.0100    0.0100    0.0100    0.0100
0.0100    0.0100    0.0100    0.0100    0.0100    0.0100    0.0100    0.0100
0.0100    0.0100    0.0100    0.0100    0.0100    0.0100    0.0100    0.0100
0.0100    0.0100    0.0100    0.0100    0.0100    0.0100    0.0100    0.0100
0.0100    0.0100    0.0100    0.0100    0.0100    0.0100    0.0100    0.0100
0.0100    0.0100    0.0100    0.0100    0.0100    0.0100    0.0100    0.0100
0.0100    0.0100    0.0100    0.0100    0.0100    0.0100    0.0100    0.0100
0.0100    0.0100    0.0100    0.0100    0.0100    0.0100    0.0100    0.0100
0.0100    0.0100    0.0100    0.0100    0.0100    0.0100    0.0100    0.0100
0.0100    0.0100    0.0100    0.0100    0.0100    0.0100    0.0100    0.0100
0.0100    0.0100    0.0100    0.0100    0.0100    0.0100    0.0100    0.0100
0.0100    0.0100    0.0100    0.0100    0.0100    0.0100    0.0100    0.0100
0.0100    0.0100    0.0100    0.0100    0.0100    0.0100    0.0100    0.0100
0.0100    0.0100    0.0100    0.0100    0.0100    0.0100    0.0100    0.0100
0.0100    0.0100    0.0100    0.0100    0.0100    0.0100    0.0100    0.0100
0.0100    0.0100    0.0100    0.0100    0.0100    0.0100    0.0100    0.0100
0.0100    0.0100    0.0100    0.0100    0.0100    0.0100    0.0100    0.0100
0.0100    0.0100    0.0100    0.0100    0.0100    0.0100    0.0100    0.0100
0.0100    0.0100    0.0100    0.0100    0.0100    0.0100    0.0100    0.0100
0.0100    0.0100    0.0100    0.0100    0.0100    0.0100    0.0100    0.0100
0.0100    0.0100    0.0100    0.0100    0.0100    0.0100    0.0100    0.0100
0.0100    0.0100    0.0100    0.0100    0.0100    0.0100    0.0100    0.0100
0.0100    0.0100    0.0100    0.0100    0.0100    0.0100    0.0100    0.0100
0.0100    0.0100    0.0100    0.0100    0.0100    0.0100    0.0100    0.0100
0.0100    0.0100    0.0100    0.0100    0.0100    0.0100    0.0100    0.0100
0.0100    0.0100    0.0100    0.0100    0.0100    0.0100    0.0100    0.0100
0.0100    0.0100    0.0100    0.0100    0.0100    0.0100    0.0100    0.0100
0.0100    0.0100    0.0100    0.0100    0.0100    0.0100    0.0100    0.0100
0.0100    0.0100
</PP_RAB>
</PP_MESH>
<PP_LOCAL type="real"  size=" 938" columns="4">
-2.1478854522E+01   -2.1478125677E+01   -2.1475940378E+01   -2.1472302350E+01
-2.1467217737E+01   -2.1460695015E+01   -2.1452744879E+01   -2.1443380087E+01
-2.1432615291E+01   -2.1420466839E+01   -2.1406952558E+01   -2.1392091534E+01
-2.1375903871E+01   -2.1358410452E+01   -2.1339632703E+01   -2.1319592353E+01
-2.1298311210E+01   -2.1275810943E+01   -2.1252112880E+01   -2.1227237815E+01
-2.1201205844E+01   -2.1174036207E+01   -2.1145747154E+01   -2.1116355829E+01
-2.1085878171E+01   -2.1054328833E+01   -2.1021721118E+01   -2.0988066926E+01
-2.0953376722E+01   -2.0917659511E+01   -2.0880922826E+01   -2.0843172726E+01
-2.0804413800E+01   -2.0764649184E+01   -2.0723880573E+01   -2.0682108257E+01
-2.0639331137E+01   -2.0595546765E+01   -2.0550751381E+01   -2.0504939944E+01
-2.0458106182E+01   -2.0410242630E+01   -2.0361340680E+01   -2.0311390630E+01
-2.0260381738E+01   -2.0208302274E+01   -2.0155139581E+01   -2.0100880138E+01
-2.0045509622E+01   -1.9989012975E+01   -1.9931374473E+01   -1.9872577799E+01
-1.9812606108E+01   -1.9751442104E+01   -1.9689068108E+01   -1.9625466127E+01
-1.9560617922E+01   -1.9494505074E+01   -1.9427109053E+01   -1.9358411285E+01
-1.9288393220E+01   -1.9217036420E+01   -1.9144322644E+01   -1.9070233964E+01
-1.8994752900E+01   -1.8917862592E+01   -1.8839547011E+01   -1.8759791222E+01
-1.8678581695E+01   -1.8595906681E+01   -1.8511756644E+01   -1.8426124752E+01
-1.8339007411E+01   -1.8250404837E+01   -1.8160321639E+01   -1.8068767399E+01
-1.7975757200E+01   -1.7881312098E+01   -1.7785459480E+01   -1.7688233295E+01
-1.7589674118E+01   -1.7489829047E+01   -1.7388751405E+01   -1.7286500264E+01
-1.7183139797E+01   -1.7078738492E+01   -1.6973368256E+01   -1.6867103455E+01
-1.6760019937E+01   -1.6652194083E+01   -1.6543701924E+01   -1.6434618368E+01
-1.6325016548E+01   -1.6214967320E+01   -1.6104538913E+01   -1.5993796720E+01
-1.5882803222E+01   -1.5771618029E+01   -1.5660298017E+01   -1.5548897525E+01
-1.5437468612E+01   -1.5326061333E+01   -1.5214724019E+01   -1.5103503561E+01
-1.4992445659E+01   -1.4881595058E+01   -1.4770995734E+01   -1.4660691053E+01
-1.4550723889E+01   -1.4441136692E+01   -1.4331971536E+01   -1.4223270116E+01
-1.4115073722E+01   -1.4007423184E+01   -1.3900358791E+01   -1.3793920191E+01
-1.3688146280E+01   -1.3583075078E+01   -1.3478743593E+01   -1.3375187694E+01
-1.3272441973E+01   -1.3170539623E+01   -1.3069512310E+01   -1.2969390066E+01
-1.2870201185E+01   -1.2771972135E+01   -1.2674727479E+01   -1.2578489816E+01
-1.2483279728E+01   -1.2389115742E+01   -1.2296014309E+01   -1.2203989789E+01
-1.2113054446E+01   -1.2023218457E+01   -1.1934489926E+01   -1.1846874906E+01
-1.1760377422E+01   -1.1674999508E+01   -1.1590741240E+01   -1.1507600771E+01
-1.1425574371E+01   -1.1344656469E+01   -1.1264839685E+01   -1.1186114876E+01
-1.1108471167E+01   -1.1031895988E+01   -1.0956375103E+01   -1.0881892648E+01
-1.0808431138E+01   -1.0735971544E+01   -1.0664493260E+01   -1.0593974011E+01
-1.0524390354E+01   -1.0455718474E+01   -1.0387934692E+01   -1.0321016377E+01
-1.0254944745E+01   -1.0189705514E+01   -1.0125290023E+01   -1.0061692118E+01
-9.9988994061E+00   -9.9368946811E+00   -9.8756590047E+00   -9.8151734056E+00
-9.7554237868E+00   -9.6963978746E+00   -9.6380810203E+00   -9.5804586290E+00
-9.5235175666E+00   -9.4672451691E+00   -9.4116289840E+00   -9.3566569921E+00
-9.3023176069E+00   -9.2485996247E+00   -9.1954922089E+00   -9.1429848760E+00
-9.0910674776E+00   -9.0397301835E+00   -8.9889634639E+00   -8.9387580721E+00
-8.8891050274E+00   -8.8399955987E+00   -8.7914212876E+00   -8.7433738136E+00
-8.6958450982E+00   -8.6488272511E+00   -8.6023125565E+00   -8.5562934604E+00
-8.5107625590E+00   -8.4657125877E+00   -8.4211364116E+00   -8.3770270162E+00
-8.3333775001E+00   -8.2901810677E+00   -8.2474310240E+00   -8.2051207689E+00
-8.1632437941E+00   -8.1217936791E+00   -8.0807640898E+00   -8.0401487765E+00
-7.9999415730E+00   -7.9601363966E+00   -7.9207272484E+00   -7.8817082139E+00
-7.8430734643E+00   -7.8048172579E+00   -7.7669339415E+00   -7.7294179525E+00
-7.6922638206E+00   -7.6554661694E+00   -7.6190197184E+00   -7.5829192843E+00
-7.5471597825E+00   -7.5117362281E+00   -7.4766437369E+00   -7.4418775256E+00
-7.4074329120E+00   -7.3733053150E+00   -7.3394902537E+00   -7.3059833466E+00
-7.2727803102E+00   -7.2398769573E+00   -7.2072691950E+00   -7.1749530224E+00
-7.1429245276E+00   -7.1111798855E+00   -7.0797153542E+00   -7.0485272720E+00
-7.0176120542E+00   -6.9869661891E+00   -6.9565862351E+00   -6.9264688172E+00
-6.8966106232E+00   -6.8670084007E+00   -6.8376589539E+00   -6.8085591404E+00
-6.7797058684E+00   -6.7510960943E+00   -6.7227268198E+00   -6.6945950902E+00
-6.6666979922E+00   -6.6390326526E+00   -6.6115962364E+00   -6.5843859461E+00
-6.5573990206E+00   -6.5306327346E+00   -6.5040843985E+00   -6.4777513574E+00
-6.4516309919E+00   -6.4257207176E+00   -6.4000179855E+00   -6.3745202823E+00
-6.3492251309E+00   -6.3241300904E+00   -6.2992327569E+00   -6.2745307638E+00
-6.2500217819E+00   -6.2257035198E+00   -6.2015737243E+00   -6.1776301800E+00
-6.1538707099E+00   -6.1302931747E+00   -6.1068954727E+00   -6.0836755394E+00
-6.0606313471E+00   -6.0377609038E+00   -6.0150622529E+00   -5.9925334718E+00
-5.9701726661E+00   -5.9479779825E+00   -5.9259476071E+00   -5.9040797624E+00
-5.8823726872E+00   -5.8608245369E+00   -5.8394335634E+00   -5.8181979518E+00
-5.7971164190E+00   -5.7761875515E+00   -5.7554100680E+00   -5.7347821465E+00
-5.7143018618E+00   -5.6939672610E+00   -5.6737765425E+00   -5.6537282206E+00
-5.6338208021E+00   -5.6140528900E+00   -5.5944230719E+00   -5.5749299886E+00
-5.5555723216E+00   -5.5363486860E+00   -5.5172576722E+00   -5.4982978836E+00
-5.4794679280E+00   -5.4607664982E+00   -5.4421922842E+00   -5.4237440023E+00
-5.4054203750E+00   -5.3872201411E+00   -5.3691420580E+00   -5.3511848997E+00
-5.3333474574E+00   -5.3156285378E+00   -5.2980269637E+00   -5.2805415731E+00
-5.2631712195E+00   -5.2459147715E+00   -5.2287711124E+00   -5.2117391399E+00
-5.1948177663E+00   -5.1780059178E+00   -5.1613025344E+00   -5.1447065700E+00
-5.1282169916E+00   -5.1118327796E+00   -5.0955529273E+00   -5.0793764408E+00
-5.0633023389E+00   -5.0473296525E+00   -5.0314574250E+00   -5.0156847115E+00
-5.0000105792E+00   -4.9844341068E+00   -4.9689543843E+00   -4.9535705133E+00
-4.9382816061E+00   -4.9230867861E+00   -4.9079851877E+00   -4.8929759555E+00
-4.8780582447E+00   -4.8632312207E+00   -4.8484940592E+00   -4.8338459457E+00
-4.8192860755E+00   -4.8048136537E+00   -4.7904278948E+00   -4.7761280227E+00
-4.7619132705E+00   -4.7477828805E+00   -4.7337361040E+00   -4.7197722009E+00
-4.7058904401E+00   -4.6920900988E+00   -4.6783704629E+00   -4.6647308265E+00
-4.6511704919E+00   -4.6376887695E+00   -4.6242849777E+00   -4.6109584427E+00
-4.5977084985E+00   -4.5845344868E+00   -4.5714357567E+00   -4.5584116646E+00
-4.5454615746E+00   -4.5325848577E+00   -4.5197808920E+00   -4.5070490627E+00
-4.4943887620E+00   -4.4817993888E+00   -4.4692803486E+00   -4.4568310537E+00
-4.4444509229E+00   -4.4321393815E+00   -4.4198958608E+00   -4.4077197989E+00
-4.3956106397E+00   -4.3835678333E+00   -4.3715908357E+00   -4.3596791092E+00
-4.3478321214E+00   -4.3360493461E+00   -4.3243302627E+00   -4.3126743560E+00
-4.3010811166E+00   -4.2895500404E+00   -4.2780806287E+00   -4.2666723883E+00
-4.2553248310E+00   -4.2440374740E+00   -4.2328098394E+00   -4.2216414544E+00
-4.2105318514E+00   -4.1994805674E+00   -4.1884871444E+00   -4.1775511292E+00
-4.1666720733E+00   -4.1558495327E+00   -4.1450830683E+00   -4.1343722453E+00
-4.1237166335E+00   -4.1131158071E+00   -4.1025693446E+00   -4.0920768288E+00
-4.0816378471E+00   -4.0712519905E+00   -4.0609188547E+00   -4.0506380392E+00
-4.0404091476E+00   -4.0302317875E+00   -4.0201055705E+00   -4.0100301120E+00
-4.0000050313E+00   -3.9900299515E+00   -3.9801044995E+00   -3.9702283058E+00
-3.9604010045E+00   -3.9506222336E+00   -3.9408916344E+00   -3.9312088518E+00
-3.9215735342E+00   -3.9119853335E+00   -3.9024439048E+00   -3.8929489067E+00
-3.8835000012E+00   -3.8740968534E+00   -3.8647391317E+00   -3.8554265078E+00
-3.8461586564E+00   -3.8369352553E+00   -3.8277559856E+00   -3.8186205312E+00
-3.8095285792E+00   -3.8004798195E+00   -3.7914739452E+00   -3.7825106519E+00
-3.7735896386E+00   -3.7647106066E+00   -3.7558732603E+00   -3.7470773069E+00
-3.7383224562E+00   -3.7296084207E+00   -3.7209349157E+00   -3.7123016591E+00
-3.7037083714E+00   -3.6951547755E+00   -3.6866405972E+00   -3.6781655646E+00
-3.6697294084E+00   -3.6613318615E+00   -3.6529726597E+00   -3.6446515408E+00
-3.6363682451E+00   -3.6281225154E+00   -3.6199140967E+00   -3.6117427363E+00
-3.6036081838E+00   -3.5955101911E+00   -3.5874485122E+00   -3.5794229034E+00
-3.5714331231E+00   -3.5634789320E+00   -3.5555600928E+00   -3.5476763704E+00
-3.5398275316E+00   -3.5320133455E+00   -3.5242335830E+00   -3.5164880171E+00
-3.5087764230E+00   -3.5010985775E+00   -3.4934542597E+00   -3.4858432503E+00
-3.4782653322E+00   -3.4707202900E+00   -3.4632079101E+00   -3.4557279811E+00
-3.4482802930E+00   -3.4408646379E+00   -3.4334808095E+00   -3.4261286033E+00
-3.4188078167E+00   -3.4115182487E+00   -3.4042597000E+00   -3.3970319731E+00
-3.3898348720E+00   -3.3826682024E+00   -3.3755317719E+00   -3.3684253893E+00
-3.3613488654E+00   -3.3543020122E+00   -3.3472846437E+00   -3.3402965751E+00
-3.3333376234E+00   -3.3264076068E+00   -3.3195063454E+00   -3.3126336605E+00
-3.3057893749E+00   -3.2989733131E+00   -3.2921853008E+00   -3.2854251652E+00
-3.2786927349E+00   -3.2719878400E+00   -3.2653103119E+00   -3.2586599833E+00
-3.2520366885E+00   -3.2454402628E+00   -3.2388705432E+00   -3.2323273678E+00