<UPF version="2.0.1">
<PP_INFO>

This pseudopotential file has been produced using the code
ONCVPSP  (Optimized Norm-Conservinng Vanderbilt PSeudopotential)
scalar-relativistic version 3.3.0 08/16/2017 by D. R. Hamann
The code is available through a link at URL www.mat-simresearch.com.
Documentation with the package provides a full discription of the
input data below.


While it is not required under the terms of the GNU GPL, it is
suggested that you cite D. R. Hamann, Phys. Rev. B 88, 085117 (2013)
in any publication using these pseudopotentials.

<PP_INPUTFILE>
# ATOM AND REFERENCE CONFIGURATION
# atsym  z   nc   nv     iexc    psfile
He  2.00    0    1       4      upf
#
#   n    l    f        energy (Ha)
1    0    2.00
#
# PSEUDOPOTENTIAL AND OPTIMIZATION
# lmax
1
#
#   l,   rc,      ep,       ncon, nbas, qcut
0   1.25000  -0.57931    4    8   9.40000
1   1.13000   0.05000    4    7   9.40000
#
# LOCAL POTENTIAL
# lloc, lpopt,  rc(5),   dvloc0
4    5   1.00000      0.00000
#
# VANDERBILT-KLEINMAN-BYLANDER PROJECTORs
# l, nproj, debl
0    2   1.00000
1    1   1.00000
#
# MODEL CORE CHARGE
# icmod, fcfact, rcfact
0   0.00000   0.00000
#
# LOG DERIVATIVE ANALYSIS
# epsh1, epsh2, depsh
-12.00   12.00    0.02
#
# OUTPUT GRID
# rlmax, drl
6.00    0.01
#
# TEST CONFIGURATIONS
# ncnf
0
# nvcnf
#   n    l    f
</PP_INPUTFILE>
</PP_INFO>
<!--                               -->
<!-- END OF HUMAN READABLE SECTION -->
<!--                               -->
<PP_HEADER
generated="Generated using ONCVPSP code by D. R. Hamann"
author="anonymous"
date="171031"
comment=""
element="He"
pseudo_type="NC"
relativistic="scalar"
is_ultrasoft="F"
is_paw="F"
is_coulomb="F"
has_so="F"
has_wfc="F"
has_gipaw="F"
core_correction="F"
functional="PBE"
z_valence="    2.00"
total_psenergy="  -5.71696204260E+00"
rho_cutoff="   7.21000000000E+00"
l_max="1"
l_local="-1"
mesh_size="   722"
number_of_wfc="1"
number_of_proj="3"/>
<PP_MESH>
<PP_R type="real"  size=" 722" columns="8">
0.0000    0.0100    0.0200    0.0300    0.0400    0.0500    0.0600    0.0700
0.0800    0.0900    0.1000    0.1100    0.1200    0.1300    0.1400    0.1500
0.1600    0.1700    0.1800    0.1900    0.2000    0.2100    0.2200    0.2300
0.2400    0.2500    0.2600    0.2700    0.2800    0.2900    0.3000    0.3100
0.3200    0.3300    0.3400    0.3500    0.3600    0.3700    0.3800    0.3900
0.4000    0.4100    0.4200    0.4300    0.4400    0.4500    0.4600    0.4700
0.4800    0.4900    0.5000    0.5100    0.5200    0.5300    0.5400    0.5500
0.5600    0.5700    0.5800    0.5900    0.6000    0.6100    0.6200    0.6300
0.6400    0.6500    0.6600    0.6700    0.6800    0.6900    0.7000    0.7100
0.7200    0.7300    0.7400    0.7500    0.7600    0.7700    0.7800    0.7900
0.8000    0.8100    0.8200    0.8300    0.8400    0.8500    0.8600    0.8700
0.8800    0.8900    0.9000    0.9100    0.9200    0.9300    0.9400    0.9500
0.9600    0.9700    0.9800    0.9900    1.0000    1.0100    1.0200    1.0300
1.0400    1.0500    1.0600    1.0700    1.0800    1.0900    1.1000    1.1100
1.1200    1.1300    1.1400    1.1500    1.1600    1.1700    1.1800    1.1900
1.2000    1.2100    1.2200    1.2300    1.2400    1.2500    1.2600    1.2700
1.2800    1.2900    1.3000    1.3100    1.3200    1.3300    1.3400    1.3500
1.3600    1.3700    1.3800    1.3900    1.4000    1.4100    1.4200    1.4300
1.4400    1.4500    1.4600    1.4700    1.4800    1.4900    1.5000    1.5100
1.5200    1.5300    1.5400    1.5500    1.5600    1.5700    1.5800    1.5900
1.6000    1.6100    1.6200    1.6300    1.6400    1.6500    1.6600    1.6700
1.6800    1.6900    1.7000    1.7100    1.7200    1.7300    1.7400    1.7500
1.7600    1.7700    1.7800    1.7900    1.8000    1.8100    1.8200    1.8300
1.8400    1.8500    1.8600    1.8700    1.8800    1.8900    1.9000    1.9100
1.9200    1.9300    1.9400    1.9500    1.9600    1.9700    1.9800    1.9900
2.0000    2.0100    2.0200    2.0300    2.0400    2.0500    2.0600    2.0700
2.0800    2.0900    2.1000    2.1100    2.1200    2.1300    2.1400    2.1500
2.1600    2.1700    2.1800    2.1900    2.2000    2.2100    2.2200    2.2300
2.2400    2.2500    2.2600    2.2700    2.2800    2.2900    2.3000    2.3100
2.3200    2.3300    2.3400    2.3500    2.3600    2.3700    2.3800    2.3900
2.4000    2.4100    2.4200    2.4300    2.4400    2.4500    2.4600    2.4700
2.4800    2.4900    2.5000    2.5100    2.5200    2.5300    2.5400    2.5500
2.5600    2.5700    2.5800    2.5900    2.6000    2.6100    2.6200    2.6300
2.6400    2.6500    2.6600    2.6700    2.6800    2.6900    2.7000    2.7100
2.7200    2.7300    2.7400    2.7500    2.7600    2.7700    2.7800    2.7900
2.8000    2.8100    2.8200    2.8300    2.8400    2.8500    2.8600    2.8700
2.8800    2.8900    2.9000    2.9100    2.9200    2.9300    2.9400    2.9500
2.9600    2.9700    2.9800    2.9900    3.0000    3.0100    3.0200    3.0300
3.0400    3.0500    3.0600    3.0700    3.0800    3.0900    3.1000    3.1100
3.1200    3.1300    3.1400    3.1500    3.1600    3.1700    3.1800    3.1900
3.2000    3.2100    3.2200    3.2300    3.2400    3.2500    3.2600    3.2700
3.2800    3.2900    3.3000    3.3100    3.3200    3.3300    3.3400    3.3500
3.3600    3.3700    3.3800    3.3900    3.4000    3.4100    3.4200    3.4300
3.4400    3.4500    3.4600    3.4700    3.4800    3.4900    3.5000    3.5100
3.5200    3.5300    3.5400    3.5500    3.5600    3.5700    3.5800    3.5900
3.6000    3.6100    3.6200    3.6300    3.6400    3.6500    3.6600    3.6700
3.6800    3.6900    3.7000    3.7100    3.7200    3.7300    3.7400    3.7500
3.7600    3.7700    3.7800    3.7900    3.8000    3.8100    3.8200    3.8300
3.8400    3.8500    3.8600    3.8700    3.8800    3.8900    3.9000    3.9100
3.9200    3.9300    3.9400    3.9500    3.9600    3.9700    3.9800    3.9900
4.0000    4.0100    4.0200    4.0300    4.0400    4.0500    4.0600    4.0700
4.0800    4.0900    4.1000    4.1100    4.1200    4.1300    4.1400    4.1500
4.1600    4.1700    4.1800    4.1900    4.2000    4.2100    4.2200    4.2300
4.2400    4.2500    4.2600    4.2700    4.2800    4.2900    4.3000    4.3100
4.3200    4.3300    4.3400    4.3500    4.3600    4.3700    4.3800    4.3900
4.4000    4.4100    4.4200    4.4300    4.4400    4.4500    4.4600    4.4700
4.4800    4.4900    4.5000    4.5100    4.5200    4.5300    4.5400    4.5500
4.5600    4.5700    4.5800    4.5900    4.6000    4.6100    4.6200    4.6300
4.6400    4.6500    4.6600    4.6700    4.6800    4.6900    4.7000    4.7100
4.7200    4.7300    4.7400    4.7500    4.7600    4.7700    4.7800    4.7900
4.8000    4.8100    4.8200    4.8300    4.8400    4.8500    4.8600    4.8700
4.8800    4.8900    4.9000    4.9100    4.9200    4.9300    4.9400    4.9500
4.9600    4.9700    4.9800    4.9900    5.0000    5.0100    5.0200    5.0300
5.0400    5.0500    5.0600    5.0700    5.0800    5.0900    5.1000    5.1100
5.1200    5.1300    5.1400    5.1500    5.1600    5.1700    5.1800    5.1900
5.2000    5.2100    5.2200    5.2300    5.2400    5.2500    5.2600    5.2700
5.2800    5.2900    5.3000    5.3100    5.3200    5.3300    5.3400    5.3500
5.3600    5.3700    5.3800    5.3900    5.4000    5.4100    5.4200    5.4300
5.4400    5.4500    5.4600    5.4700    5.4800    5.4900    5.5000    5.5100
5.5200    5.5300    5.5400    5.5500    5.5600    5.5700    5.5800    5.5900
5.6000    5.6100    5.6200    5.6300    5.6400    5.6500    5.6600    5.6700
5.6800    5.6900    5.7000    5.7100    5.7200    5.7300    5.7400    5.7500
5.7600    5.7700    5.7800    5.7900    5.8000    5.8100    5.8200    5.8300
5.8400    5.8500    5.8600    5.8700    5.8800    5.8900    5.9000    5.9100
5.9200    5.9300    5.9400    5.9500    5.9600    5.9700    5.9800    5.9900
6.0000    6.0100    6.0200    6.0300    6.0400    6.0500    6.0600    6.0700
6.0800    6.0900    6.1000    6.1100    6.1200    6.1300    6.1400    6.1500
6.1600    6.1700    6.1800    6.1900    6.2000    6.2100    6.2200    6.2300
6.2400    6.2500    6.2600    6.2700    6.2800    6.2900    6.3000    6.3100
6.3200    6.3300    6.3400    6.3500    6.3600    6.3700    6.3800    6.3900
6.4000    6.4100    6.4200    6.4300    6.4400    6.4500    6.4600    6.4700
6.4800    6.4900    6.5000    6.5100    6.5200    6.5300    6.5400    6.5500
6.5600    6.5700    6.5800    6.5900    6.6000    6.6100    6.6200    6.6300
6.6400    6.6500    6.6600    6.6700    6.6800    6.6900    6.7000    6.7100
6.7200    6.7300    6.7400    6.7500    6.7600    6.7700    6.7800    6.7900
6.8000    6.8100    6.8200    6.8300    6.8400    6.8500    6.8600    6.8700
6.8800    6.8900    6.9000    6.9100    6.9200    6.9300    6.9400    6.9500
6.9600    6.9700    6.9800    6.9900    7.0000    7.0100    7.0200    7.0300
7.0400    7.0500    7.0600    7.0700    7.0800    7.0900    7.1000    7.1100
7.1200    7.1300    7.1400    7.1500    7.1600    7.1700    7.1800    7.1900
7.2000    7.2100
</PP_R>
<PP_RAB type="real"  size=" 722" columns="8">
0.0100    0.0100    0.0100    0.0100    0.0100    0.0100    0.0100    0.0100
0.0100    0.0100    0.0100    0.0100    0.0100    0.0100    0.0100    0.0100
0.0100    0.0100    0.0100    0.0100    0.0100    0.0100    0.0100    0.0100
0.0100    0.0100    0.0100    0.0100    0.0100    0.0100    0.0100    0.0100
0.0100    0.0100    0.0100    0.0100    0.0100    0.0100    0.0100    0.0100
0.0100    0.0100    0.0100    0.0100    0.0100    0.0100    0.0100    0.0100
0.0100    0.0100    0.0100    0.0100    0.0100    0.0100    0.0100    0.0100
0.0100    0.0100    0.0100    0.0100    0.0100    0.0100    0.0100    0.0100
0.0100    0.0100    0.0100    0.0100    0.0100    0.0100    0.0100    0.0100
0.0100    0.0100    0.0100    0.0100    0.0100    0.0100    0.0100    0.0100
0.0100    0.0100    0.0100    0.0100    0.0100    0.0100    0.0100    0.0100
0.0100    0.0100    0.0100    0.0100    0.0100    0.0100    0.0100    0.0100
0.0100    0.0100    0.0100    0.0100    0.0100    0.0100    0.0100    0.0100
0.0100    0.0100    0.0100    0.0100    0.0100    0.0100    0.0100    0.0100
0.0100    0.0100    0.0100    0.0100    0.0100    0.0100    0.0100    0.0100
0.0100    0.0100    0.0100    0.0100    0.0100    0.0100    0.0100    0.0100
0.0100    0.0100    0.0100    0.0100    0.0100    0.0100    0.0100    0.0100
0.0100    0.0100    0.0100    0.0100    0.0100    0.0100    0.0100    0.0100
0.0100    0.0100    0.0100    0.0100    0.0100    0.0100    0.0100    0.0100
0.0100    0.0100    0.0100    0.0100    0.0100    0.0100    0.0100    0.0100
0.0100    0.0100    0.0100    0.0100    0.0100    0.0100    0.0100    0.0100
0.0100    0.0100    0.0100    0.0100    0.0100    0.0100    0.0100    0.0100
0.0100    0.0100    0.0100    0.0100    0.0100    0.0100    0.0100    0.0100
0.0100    0.0100    0.0100    0.0100    0.0100    0.0100    0.0100    0.0100
0.0100    0.0100    0.0100    0.0100    0.0100    0.0100    0.0100    0.0100
0.0100    0.0100    0.0100    0.0100    0.0100    0.0100    0.0100    0.0100
0.0100    0.0100    0.0100    0.0100    0.0100    0.0100    0.0100    0.0100
0.0100    0.0100    0.0100    0.0100    0.0100    0.0100    0.0100    0.0100
0.0100    0.0100    0.0100    0.0100    0.0100    0.0100    0.0100    0.0100
0.0100    0.0100    0.0100    0.0100    0.0100    0.0100    0.0100    0.0100
0.0100    0.0100    0.0100    0.0100    0.0100    0.0100    0.0100    0.0100
0.0100    0.0100    0.0100    0.0100    0.0100    0.0100    0.0100    0.0100
0.0100    0.0100    0.0100    0.0100    0.0100    0.0100    0.0100    0.0100
0.0100    0.0100    0.0100    0.0100    0.0100    0.0100    0.0100    0.0100
0.0100    0.0100    0.0100    0.0100    0.0100    0.0100    0.0100    0.0100
0.0100    0.0100    0.0100    0.0100    0.0100    0.0100    0.0100    0.0100
0.0100    0.0100    0.0100    0.0100    0.0100    0.0100    0.0100    0.0100
0.0100    0.0100    0.0100    0.0100    0.0100    0.0100    0.0100    0.0100
0.0100    0.0100    0.0100    0.0100    0.0100    0.0100    0.0100    0.0100
0.0100    0.0100    0.0100    0.0100    0.0100    0.0100    0.0100    0.0100
0.0100    0.0100    0.0100    0.0100    0.0100    0.0100    0.0100    0.0100
0.0100    0.0100    0.0100    0.0100    0.0100    0.0100    0.0100    0.0100
0.0100    0.0100    0.0100    0.0100    0.0100    0.0100    0.0100    0.0100
0.0100    0.0100    0.0100    0.0100    0.0100    0.0100    0.0100    0.0100
0.0100    0.0100    0.0100    0.0100    0.0100    0.0100    0.0100    0.0100
0.0100    0.0100    0.0100    0.0100    0.0100    0.0100    0.0100    0.0100
0.0100    0.0100    0.0100    0.0100    0.0100    0.0100    0.0100    0.0100
0.0100    0.0100    0.0100    0.0100    0.0100    0.0100    0.0100    0.0100
0.0100    0.0100    0.0100    0.0100    0.0100    0.0100    0.0100    0.0100
0.0100    0.0100    0.0100    0.0100    0.0100    0.0100    0.0100    0.0100
0.0100    0.0100    0.0100    0.0100    0.0100    0.0100    0.0100    0.0100
0.0100    0.0100    0.0100    0.0100    0.0100    0.0100    0.0100    0.0100
0.0100    0.0100    0.0100    0.0100    0.0100    0.0100    0.0100    0.0100
0.0100    0.0100    0.0100    0.0100    0.0100    0.0100    0.0100    0.0100
0.0100    0.0100    0.0100    0.0100    0.0100    0.0100    0.0100    0.0100
0.0100    0.0100    0.0100    0.0100    0.0100    0.0100    0.0100    0.0100
0.0100    0.0100    0.0100    0.0100    0.0100    0.0100    0.0100    0.0100
0.0100    0.0100    0.0100    0.0100    0.0100    0.0100    0.0100    0.0100
0.0100    0.0100    0.0100    0.0100    0.0100    0.0100    0.0100    0.0100
0.0100    0.0100    0.0100    0.0100    0.0100    0.0100    0.0100    0.0100
0.0100    0.0100    0.0100    0.0100    0.0100    0.0100    0.0100    0.0100
0.0100    0.0100    0.0100    0.0100    0.0100    0.0100    0.0100    0.0100
0.0100    0.0100    0.0100    0.0100    0.0100    0.0100    0.0100    0.0100
0.0100    0.0100    0.0100    0.0100    0.0100    0.0100    0.0100    0.0100
0.0100    0.0100    0.0100    0.0100    0.0100    0.0100    0.0100    0.0100
0.0100    0.0100    0.0100    0.0100    0.0100    0.0100    0.0100    0.0100
0.0100    0.0100    0.0100    0.0100    0.0100    0.0100    0.0100    0.0100
0.0100    0.0100    0.0100    0.0100    0.0100    0.0100    0.0100    0.0100
0.0100    0.0100    0.0100    0.0100    0.0100    0.0100    0.0100    0.0100
0.0100    0.0100    0.0100    0.0100    0.0100    0.0100    0.0100    0.0100
0.0100    0.0100    0.0100    0.0100    0.0100    0.0100    0.0100    0.0100
0.0100    0.0100    0.0100    0.0100    0.0100    0.0100    0.0100    0.0100
0.0100    0.0100    0.0100    0.0100    0.0100    0.0100    0.0100    0.0100
0.0100    0.0100    0.0100    0.0100    0.0100    0.0100    0.0100    0.0100
0.0100    0.0100    0.0100    0.0100    0.0100    0.0100    0.0100    0.0100
0.0100    0.0100    0.0100    0.0100    0.0100    0.0100    0.0100    0.0100
0.0100    0.0100    0.0100    0.0100    0.0100    0.0100    0.0100    0.0100
0.0100    0.0100    0.0100    0.0100    0.0100    0.0100    0.0100    0.0100
0.0100    0.0100    0.0100    0.0100    0.0100    0.0100    0.0100    0.0100
0.0100    0.0100    0.0100    0.0100    0.0100    0.0100    0.0100    0.0100
0.0100    0.0100    0.0100    0.0100    0.0100    0.0100    0.0100    0.0100
0.0100    0.0100    0.0100    0.0100    0.0100    0.0100    0.0100    0.0100
0.0100    0.0100    0.0100    0.0100    0.0100    0.0100    0.0100    0.0100
0.0100    0.0100    0.0100    0.0100    0.0100    0.0100    0.0100    0.0100
0.0100    0.0100    0.0100    0.0100    0.0100    0.0100    0.0100    0.0100
0.0100    0.0100    0.0100    0.0100    0.0100    0.0100    0.0100    0.0100
0.0100    0.0100    0.0100    0.0100    0.0100    0.0100    0.0100    0.0100
0.0100    0.0100    0.0100    0.0100    0.0100    0.0100    0.0100    0.0100
0.0100    0.0100    0.0100    0.0100    0.0100    0.0100    0.0100    0.0100
0.0100    0.0100    0.0100    0.0100    0.0100    0.0100    0.0100    0.0100
0.0100    0.0100
</PP_RAB>
</PP_MESH>
<PP_LOCAL type="real"  size=" 722" columns="4">
-8.8529698751E+00   -8.8516090808E+00   -8.8475329755E+00   -8.8407604169E+00
-8.8313223612E+00   -8.8192612127E+00   -8.8046299418E+00   -8.7874910156E+00
-8.7679151870E+00   -8.7459801868E+00   -8.7217693692E+00   -8.6953703543E+00
-8.6668737101E+00   -8.6363717099E+00   -8.6039571922E+00   -8.5697225469E+00
-8.5337588381E+00   -8.4961550726E+00   -8.4569976121E+00   -8.4163697251E+00
-8.3743512677E+00   -8.3310184820E+00   -8.2864438963E+00   -8.2406963124E+00
-8.1938408639E+00   -8.1459391309E+00   -8.0970492968E+00   -8.0472263349E+00
-7.9965222132E+00   -7.9449861092E+00   -7.8926646264E+00   -7.8396020062E+00
-7.7858403319E+00   -7.7314197199E+00   -7.6763784983E+00   -7.6207533692E+00
-7.5645795563E+00   -7.5078909377E+00   -7.4507201641E+00   -7.3930987640E+00
-7.3350572374E+00   -7.2766251392E+00   -7.2178311537E+00   -7.1587031628E+00
-7.0992683078E+00   -7.0395530476E+00   -6.9795832139E+00   -6.9193840643E+00
-6.8589803352E+00   -6.7983962938E+00   -6.7376557908E+00   -6.6767823145E+00
-6.6157990441E+00   -6.5547289056E+00   -6.4935946272E+00   -6.4324187949E+00
-6.3712239078E+00   -6.3100324326E+00   -6.2488668554E+00   -6.1877497316E+00
-6.1267037309E+00   -6.0657516788E+00   -6.0049165915E+00   -5.9442217046E+00
-5.8836904947E+00   -5.8233466918E+00   -5.7632142844E+00   -5.7033175137E+00
-5.6436808593E+00   -5.5843290148E+00   -5.5252868531E+00   -5.4665793826E+00
-5.4082316933E+00   -5.3502688952E+00   -5.2927160467E+00   -5.2355980769E+00
-5.1789397000E+00   -5.1227653247E+00   -5.0670989582E+00   -5.0119641064E+00
-4.9573836710E+00   -4.9033798456E+00   -4.8499740095E+00   -4.7971866229E+00
-4.7450371220E+00   -4.6935438161E+00   -4.6427237871E+00   -4.5925927918E+00
-4.5431651668E+00   -4.4944537375E+00   -4.4464697304E+00   -4.3992226887E+00
-4.3527203914E+00   -4.3069687745E+00   -4.2619718552E+00   -4.2177316572E+00
-4.1742481363E+00   -4.1315191062E+00   -4.0895401614E+00   -4.0483045982E+00
-4.0078033621E+00   -3.9680248343E+00   -3.9289552801E+00   -3.8905804702E+00
-3.8528871085E+00   -3.8158627975E+00   -3.7794959188E+00   -3.7437755429E+00
-3.7086913231E+00   -3.6742333817E+00   -3.6403921920E+00   -3.6071584572E+00
-3.5745229866E+00   -3.5424765721E+00   -3.5110098674E+00   -3.4801132714E+00
-3.4497768204E+00   -3.4199900928E+00   -3.3907421247E+00   -3.3620213442E+00
-3.3338155254E+00   -3.3061117684E+00   -3.2788964796E+00   -3.2521554098E+00
-3.2258737919E+00   -3.2000362367E+00   -3.1746265193E+00   -3.1496271232E+00
-3.1250216333E+00   -3.1007965923E+00   -3.0769437466E+00   -3.0534554570E+00
-3.0303230130E+00   -3.0075384062E+00   -2.9850938768E+00   -2.9629818618E+00
-2.9411950258E+00   -2.9197262485E+00   -2.8985686151E+00   -2.8777154105E+00
-2.8571601108E+00   -2.8368963777E+00   -2.8169180512E+00   -2.7972191437E+00
-2.7777938339E+00   -2.7586364609E+00   -2.7397415194E+00   -2.7211036533E+00
-2.7027176517E+00   -2.6845784434E+00   -2.6666810925E+00   -2.6490207938E+00
-2.6315928687E+00   -2.6143927607E+00   -2.5974160319E+00   -2.5806583588E+00
-2.5641155286E+00   -2.5477834362E+00   -2.5316580801E+00   -2.5157355597E+00
-2.5000120717E+00   -2.4844839076E+00   -2.4691474501E+00   -2.4539991710E+00
-2.4390356280E+00   -2.4242534622E+00   -2.4096493957E+00   -2.3952202292E+00
-2.3809628395E+00   -2.3668741773E+00   -2.3529512650E+00   -2.3391911948E+00
-2.3255911265E+00   -2.3121482855E+00   -2.2988599609E+00   -2.2857235040E+00
-2.2727363261E+00   -2.2598958971E+00   -2.2471997437E+00   -2.2346454480E+00
-2.2222306456E+00   -2.2099530246E+00   -2.1978103237E+00   -2.1858003312E+00
-2.1739208834E+00   -2.1621698633E+00   -2.1505451995E+00   -2.1390448651E+00
-2.1276668760E+00   -2.1164092903E+00   -2.1052702068E+00   -2.0942477644E+00
-2.0833401405E+00   -2.0725455504E+00   -2.0618622462E+00   -2.0512885159E+00
-2.0408226821E+00   -2.0304631020E+00   -2.0202081657E+00   -2.0100562955E+00
-2.0000059455E+00   -1.9900556005E+00   -1.9802037753E+00   -1.9704490139E+00
-1.9607898890E+00   -1.9512250009E+00   -1.9417529774E+00   -1.9323724725E+00
-1.9230821664E+00   -1.9138807641E+00   -1.9047669958E+00   -1.8957396155E+00
-1.8867974005E+00   -1.8779391516E+00   -1.8691636914E+00   -1.8604698650E+00
-1.8518565384E+00   -1.8433225987E+00   -1.8348669534E+00   -1.8264885301E+00
-1.8181862757E+00   -1.8099591561E+00   -1.8018061562E+00   -1.7937262786E+00
-1.7857185441E+00   -1.7777819908E+00   -1.7699156738E+00   -1.7621186647E+00
-1.7543900518E+00   -1.7467289388E+00   -1.7391344454E+00   -1.7316057064E+00
-1.7241418715E+00   -1.7167421049E+00   -1.7094055853E+00   -1.7021315052E+00
-1.6949190709E+00   -1.6877675021E+00   -1.6806760315E+00   -1.6736439047E+00
-1.6666703799E+00   -1.6597547276E+00   -1.6528962303E+00   -1.6460941825E+00
-1.6393478900E+00   -1.6326566700E+00   -1.6260198510E+00   -1.6194367723E+00
-1.6129067836E+00   -1.6064292453E+00   -1.6000035280E+00   -1.5936290123E+00
-1.5873050886E+00   -1.5810311571E+00   -1.5748066271E+00   -1.5686309176E+00
-1.5625034564E+00   -1.5564236801E+00   -1.5503910345E+00   -1.5444049734E+00
-1.5384649594E+00   -1.5325704632E+00   -1.5267209635E+00   -1.5209159471E+00
-1.5151549084E+00   -1.5094373497E+00   -1.5037627804E+00   -1.4981307175E+00
-1.4925406853E+00   -1.4869922149E+00   -1.4814848445E+00   -1.4760181191E+00
-1.4705915905E+00   -1.4652048168E+00   -1.4598573628E+00   -1.4545487996E+00
-1.4492787043E+00   -1.4440466604E+00   -1.4388522572E+00   -1.4336950900E+00
-1.4285747597E+00   -1.4234908732E+00   -1.4184430426E+00   -1.4134308858E+00
-1.4084540259E+00   -1.4035120914E+00   -1.3986047159E+00   -1.3937315380E+00
-1.3888922017E+00   -1.3840863556E+00   -1.3793136532E+00   -1.3745737529E+00
-1.3698663175E+00   -1.3651910148E+00   -1.3605475168E+00   -1.3559355000E+00
-1.3513546454E+00   -1.3468046382E+00   -1.3422851679E+00   -1.3377959281E+00
-1.3333366164E+00   -1.3289069346E+00   -1.3245065883E+00   -1.3201352871E+00
-1.3157927442E+00   -1.3114786770E+00   -1.3071928061E+00   -1.3029348560E+00
-1.2987045548E+00   -1.2945016341E+00   -1.2903258288E+00   -1.2861768774E+00
-1.2820545217E+00   -1.2779585068E+00   -1.2738885809E+00   -1.2698444957E+00
-1.2658260058E+00   -1.2618328689E+00   -1.2578648460E+00   -1.2539217008E+00
-1.2500032000E+00   -1.2461091134E+00   -1.2422392135E+00   -1.2383932756E+00
-1.2345710779E+00   -1.2307724013E+00   -1.2269970292E+00   -1.2232447479E+00
-1.2195153462E+00   -1.2158086155E+00   -1.2121243496E+00   -1.2084623449E+00
-1.2048224004E+00   -1.2012043171E+00   -1.1976078989E+00   -1.1940329517E+00
-1.1904792837E+00   -1.1869467056E+00   -1.1834350301E+00   -1.1799440723E+00
-1.1764736493E+00   -1.1730235806E+00   -1.1695936876E+00   -1.1661837937E+00
-1.1627937247E+00   -1.1594233081E+00   -1.1560723734E+00   -1.1527407524E+00
-1.1494282785E+00   -1.1461347870E+00   -1.1428601154E+00   -1.1396041027E+00
-1.1363665899E+00   -1.1331474198E+00   -1.1299464369E+00   -1.1267634876E+00
-1.1235984200E+00   -1.1204510836E+00   -1.1173213300E+00   -1.1142090122E+00
-1.1111139849E+00   -1.1080361044E+00   -1.1049752287E+00   -1.1019312172E+00
-1.0989039308E+00   -1.0958932323E+00   -1.0928989855E+00   -1.0899210560E+00
-1.0869593107E+00   -1.0840136182E+00   -1.0810838482E+00   -1.0781698721E+00
-1.0752715623E+00   -1.0723887930E+00   -1.0695214394E+00   -1.0666693783E+00
-1.0638324876E+00   -1.0610106466E+00   -1.0582037359E+00   -1.0554116373E+00
-1.0526342339E+00   -1.0498714099E+00   -1.0471230508E+00   -1.0443890434E+00
-1.0416692756E+00   -1.0389636363E+00   -1.0362720158E+00   -1.0335943054E+00
-1.0309303975E+00   -1.0282801858E+00   -1.0256435648E+00   -1.0230204302E+00
-1.0204106789E+00   -1.0178142088E+00   -1.0152309186E+00   -1.0126607083E+00
-1.0101034788E+00   -1.0075591320E+00   -1.0050275707E+00   -1.0025086990E+00
-1.0000024215E+00   -9.9750864415E-01   -9.9502727357E-01   -9.9255821742E-01
-9.9010138426E-01   -9.8765668356E-01   -9.8522402567E-01   -9.8280332181E-01
-9.8039448410E-01   -9.7799742550E-01   -9.7561205982E-01   -9.7323830172E-01
-9.7087606666E-01   -9.6852527096E-01   -9.6618583171E-01   -9.6385766683E-01
-9.6154069501E-01   -9.5923483573E-01   -9.5694000923E-01   -9.5465613651E-01
-9.5238313935E-01   -9.5012094023E-01   -9.4786946241E-01   -9.4562862984E-01
-9.4339836720E-01   -9.4117859989E-01   -9.3896925399E-01   -9.3677025629E-01
-9.3458153425E-01   -9.3240301602E-01   -9.3023463040E-01   -9.2807630688E-01
-9.2592797557E-01   -9.2378956725E-01   -9.2166101332E-01   -9.1954224582E-01
-9.1743319743E-01   -9.1533380141E-01   -9.1324399165E-01   -9.1116370266E-01
-9.0909286950E-01   -9.0703142786E-01   -9.0497931400E-01   -9.0293646475E-01
-9.0090281751E-01   -8.9887831024E-01   -8.9686288147E-01   -8.9485647027E-01
-8.9285901624E-01   -8.9087045956E-01   -8.8889074089E-01   -8.8691980146E-01
-8.8495758299E-01   -8.8300402773E-01   -8.8105907843E-01   -8.7912267835E-01
-8.7719477125E-01   -8.7527530138E-01   -8.7336421347E-01   -8.7146145273E-01
-8.6956696486E-01   -8.6768069603E-01   -8.6580259286E-01   -8.6393260244E-01
-8.6207067233E-01   -8.6021675052E-01   -8.5837078545E-01   -8.5653272602E-01
-8.5470252154E-01   -8.5288012177E-01   -8.5106547690E-01   -8.4925853752E-01
-8.4745925467E-01   -8.4566757979E-01   -8.4388346471E-01   -8.4210686171E-01
-8.4033772342E-01   -8.3857600291E-01   -8.3682165363E-01   -8.3507462939E-01
-8.3333488443E-01   -8.3160237334E-01   -8.2987705109E-01   -8.2815887305E-01
-8.2644779492E-01   -8.2474377279E-01   -8.2304676310E-01   -8.2135672266E-01
-8.1967360862E-01   -8.1799737850E-01   -8.1632799013E-01   -8.1466540173E-01
-8.1300957182E-01   -8.1136045928E-01   -8.0971802333E-01   -8.0808222348E-01
-8.0645301962E-01   -8.0483037191E-01   -8.0321424087E-01   -8.0160458733E-01
-8.0000137240E-01   -7.9840455755E-01   -7.9681410451E-01   -7.9522997536E-01
-7.9365213245E-01   -7.9208053842E-01   -7.9051515625E-01   -7.8895594916E-01
-7.8740288070E-01   -7.8585591467E-01   -7.8431501519E-01   -7.8278014665E-01
-7.8125127369E-01   -7.7972836126E-01   -7.7821137458E-01   -7.7670027912E-01
-7.7519504063E-01   -7.7369562512E-01   -7.7220199888E-01   -7.7071412844E-01
-7.6923198058E-01   -7.6775552237E-01   -7.6628472110E-01   -7.6481954432E-01
-7.6335995983E-01   -7.6190593567E-01   -7.6045744014E-01   -7.5901444176E-01
-7.5757690930E-01   -7.5614481175E-01   -7.5471811836E-01   -7.5329679860E-01
-7.5188082215E-01   -7.5047015895E-01   -7.4906477915E-01   -7.4766465312E-01
-7.4626975145E-01   -7.4488004496E-01   -7.4349550468E-01   -7.4211610186E-01
-7.4074180795E-01   -7.3937259462E-01   -7.3800843376E-01   -7.3664929744E-01
-7.3529515796E-01   -7.3394598782E-01   -7.3260175970E-01   -7.3126244651E-01
-7.2992802134E-01   -7.2859845748E-01   -7.2727372841E-01   -7.2595380781E-01
-7.2463866954E-01   -7.2332828767E-01   -7.2202263643E-01   -7.2072169025E-01
-7.1942542375E-01   -7.1813381173E-01   -7.1684682915E-01   -7.1556445118E-01
-7.1428665314E-01   -7.1301341054E-01   -7.1174469908E-01   -7.1048049459E-01
-7.0922077312E-01   -7.0796551085E-01   -7.0671468415E-01   -7.0546826955E-01
-7.0422624375E-01   -7.0298858361E-01   -7.0175526616E-01   -7.0052626856E-01
-6.9930156818E-01   -6.9808114251E-01   -6.9686496920E-01   -6.9565302608E-01
-6.9444529111E-01   -6.9324174241E-01   -6.9204235825E-01   -6.9084711705E-01
-6.8965599740E-01   -6.8846897799E-01   -6.8728603771E-01   -6.8610715555E-01
-6.8493231068E-01   -6.8376148238E-01   -6.8259465010E-01   -6.8143179341E-01
-6.8027289203E-01   -6.7911792582E-01   -6.7796687475E-01   -6.7681971897E-01
-6.7567643873E-01   -6.7453701442E-01   -6.7340142657E-01   -6.7226965584E-01
-6.7114168301E-01   -6.7001748900E-01   -6.6889705484E-01   -6.6778036172E-01
-6.6666739092E-01   -6.6555812386E-01   -6.6445254209E-01   -6.6335062727E-01
-6.6225236119E-01   -6.6115772576E-01   -6.6006670300E-01   -6.5897927505E-01
-6.5789542418E-01   -6.5681513277E-01   -6.5573838332E-01   -6.5466515842E-01
-6.5359544081E-01   -6.5252921332E-01   -6.5146645889E-01   -6.5040716059E-01
-6.4935130159E-01   -6.4829886515E-01   -6.4724983467E-01   -6.4620419364E-01
-6.4516192566E-01   -6.4412301443E-01   -6.4308744377E-01   -6.4205519758E-01
-6.4102625989E-01   -6.4000061481E-01   -6.3897824656E-01   -6.3795913947E-01
-6.3694327795E-01   -6.3593064654E-01   -6.3492122984E-01   -6.3391501257E-01
-6.3291197954E-01   -6.3191211567E-01   -6.3091540595E-01   -6.2992183549E-01
-6.2893138948E-01   -6.2794405320E-01   -6.2695981203E-01   -6.2597865144E-01
-6.2500055698E-01   -6.2402551432E-01   -6.2305350918E-01   -6.2208452741E-01
-6.2111855490E-01   -6.2015557767E-01   -6.1919558180E-01   -6.1823855347E-01
-6.1728447895E-01   -6.1633334458E-01   -6.1538513678E-01   -6.1443984208E-01
-6.1349744707E-01   -6.1255793842E-01   -6.1162130290E-01   -6.1068752735E-01
-6.0975659868E-01   -6.0882850390E-01   -6.0790323009E-01   -6.0698076441E-01
-6.0606109409E-01   -6.0514420644E-01   -6.0423008886E-01   -6.0331872881E-01
-6.0241011382E-01   -6.0150423153E-01   -6.0060106961E-01   -5.9970061584E-01
-5.9880285805E-01   -5.9790778414E-01   -5.9701538211E-01   -5.9612564001E-01
-5.9523854596E-01   -5.9435408816E-01   -5.9347225487E-01   -5.9259303443E-01
-5.9171641525E-01   -5.9084238579E-01   -5.8997093460E-01   -5.8910205029E-01
-5.8823572153E-01   -5.8737193706E-01   -5.8651068570E-01   -5.8565195631E-01
-5.8479573784E-01   -5.8394201928E-01   -5.8309078971E-01   -5.8224203826E-01
-5.8139575412E-01   -5.8055192654E-01   -5.7971054485E-01   -5.7887159843E-01
-5.7803507672E-01   -5.7720096922E-01   -5.7636926550E-01   -5.7553995518E-01
-5.7471302795E-01   -5.7388847354E-01   -5.7306628176E-01   -5.7224644248E-01
-5.7142894560E-01   -5.7061378110E-01   -5.6980093902E-01   -5.6899040944E-01
-5.6818218251E-01   -5.6737624843E-01   -5.6657259746E-01   -5.6577121991E-01
-5.6497210615E-01   -5.6417524660E-01   -5.6338063173E-01   -5.6258825207E-01
-5.6179809821E-01   -5.6101016078E-01   -5.6022443046E-01   -5.5944089800E-01