<UPF version="2.0.1">
<PP_INFO>

This pseudopotential file has been produced using the code
ONCVPSP  (Optimized Norm-Conservinng Vanderbilt PSeudopotential)
scalar-relativistic version 3.3.0 08/16/2017 by D. R. Hamann
The code is available through a link at URL www.mat-simresearch.com.
Documentation with the package provides a full discription of the
input data below.


While it is not required under the terms of the GNU GPL, it is
suggested that you cite D. R. Hamann, Phys. Rev. B 88, 085117 (2013)
in any publication using these pseudopotentials.

<PP_INPUTFILE>
# ATOM AND REFERENCE CONFIGURATION
# atsym  z   nc   nv     iexc    psfile
Ne 10.00    1    2       4      upf
#
#   n    l    f        energy (Ha)
1    0    2.00
2    0    2.00
2    1    6.00
#
# PSEUDOPOTENTIAL AND OPTIMIZATION
# lmax
1
#
#   l,   rc,      ep,       ncon, nbas, qcut
0   1.30000  -1.33786    4    7   8.00000
1   1.70000  -0.49002    4    7   8.00000
#
# LOCAL POTENTIAL
# lloc, lpopt,  rc(5),   dvloc0
4    5   1.30000      0.00000
#
# VANDERBILT-KLEINMAN-BYLANDER PROJECTORs
# l, nproj, debl
0    2   1.50000
1    2   1.50000
#
# MODEL CORE CHARGE
# icmod, fcfact, rcfact
0   0.00000   0.00000
#
# LOG DERIVATIVE ANALYSIS
# epsh1, epsh2, depsh
-12.00   12.00    0.02
#
# OUTPUT GRID
# rlmax, drl
4.00    0.01
#
# TEST CONFIGURATIONS
# ncnf
0
# nvcnf
#   n    l    f
</PP_INPUTFILE>
</PP_INFO>
<!--                               -->
<!-- END OF HUMAN READABLE SECTION -->
<!--                               -->
<PP_HEADER
generated="Generated using ONCVPSP code by D. R. Hamann"
author="anonymous"
date="171031"
comment=""
element="Ne"
pseudo_type="NC"
relativistic="scalar"
is_ultrasoft="F"
is_paw="F"
is_coulomb="F"
has_so="F"
has_wfc="F"
has_gipaw="F"
core_correction="F"
functional="PBE"
z_valence="    8.00"
total_psenergy="  -6.67133251963E+01"
rho_cutoff="   7.57000000000E+00"
l_max="1"
l_local="-1"
mesh_size="   758"
number_of_wfc="2"
number_of_proj="4"/>
<PP_MESH>
<PP_R type="real"  size=" 758" columns="8">
0.0000    0.0100    0.0200    0.0300    0.0400    0.0500    0.0600    0.0700
0.0800    0.0900    0.1000    0.1100    0.1200    0.1300    0.1400    0.1500
0.1600    0.1700    0.1800    0.1900    0.2000    0.2100    0.2200    0.2300
0.2400    0.2500    0.2600    0.2700    0.2800    0.2900    0.3000    0.3100
0.3200    0.3300    0.3400    0.3500    0.3600    0.3700    0.3800    0.3900
0.4000    0.4100    0.4200    0.4300    0.4400    0.4500    0.4600    0.4700
0.4800    0.4900    0.5000    0.5100    0.5200    0.5300    0.5400    0.5500
0.5600    0.5700    0.5800    0.5900    0.6000    0.6100    0.6200    0.6300
0.6400    0.6500    0.6600    0.6700    0.6800    0.6900    0.7000    0.7100
0.7200    0.7300    0.7400    0.7500    0.7600    0.7700    0.7800    0.7900
0.8000    0.8100    0.8200    0.8300    0.8400    0.8500    0.8600    0.8700
0.8800    0.8900    0.9000    0.9100    0.9200    0.9300    0.9400    0.9500
0.9600    0.9700    0.9800    0.9900    1.0000    1.0100    1.0200    1.0300
1.0400    1.0500    1.0600    1.0700    1.0800    1.0900    1.1000    1.1100
1.1200    1.1300    1.1400    1.1500    1.1600    1.1700    1.1800    1.1900
1.2000    1.2100    1.2200    1.2300    1.2400    1.2500    1.2600    1.2700
1.2800    1.2900    1.3000    1.3100    1.3200    1.3300    1.3400    1.3500
1.3600    1.3700    1.3800    1.3900    1.4000    1.4100    1.4200    1.4300
1.4400    1.4500    1.4600    1.4700    1.4800    1.4900    1.5000    1.5100
1.5200    1.5300    1.5400    1.5500    1.5600    1.5700    1.5800    1.5900
1.6000    1.6100    1.6200    1.6300    1.6400    1.6500    1.6600    1.6700
1.6800    1.6900    1.7000    1.7100    1.7200    1.7300    1.7400    1.7500
1.7600    1.7700    1.7800    1.7900    1.8000    1.8100    1.8200    1.8300
1.8400    1.8500    1.8600    1.8700    1.8800    1.8900    1.9000    1.9100
1.9200    1.9300    1.9400    1.9500    1.9600    1.9700    1.9800    1.9900
2.0000    2.0100    2.0200    2.0300    2.0400    2.0500    2.0600    2.0700
2.0800    2.0900    2.1000    2.1100    2.1200    2.1300    2.1400    2.1500
2.1600    2.1700    2.1800    2.1900    2.2000    2.2100    2.2200    2.2300
2.2400    2.2500    2.2600    2.2700    2.2800    2.2900    2.3000    2.3100
2.3200    2.3300    2.3400    2.3500    2.3600    2.3700    2.3800    2.3900
2.4000    2.4100    2.4200    2.4300    2.4400    2.4500    2.4600    2.4700
2.4800    2.4900    2.5000    2.5100    2.5200    2.5300    2.5400    2.5500
2.5600    2.5700    2.5800    2.5900    2.6000    2.6100    2.6200    2.6300
2.6400    2.6500    2.6600    2.6700    2.6800    2.6900    2.7000    2.7100
2.7200    2.7300    2.7400    2.7500    2.7600    2.7700    2.7800    2.7900
2.8000    2.8100    2.8200    2.8300    2.8400    2.8500    2.8600    2.8700
2.8800    2.8900    2.9000    2.9100    2.9200    2.9300    2.9400    2.9500
2.9600    2.9700    2.9800    2.9900    3.0000    3.0100    3.0200    3.0300
3.0400    3.0500    3.0600    3.0700    3.0800    3.0900    3.1000    3.1100
3.1200    3.1300    3.1400    3.1500    3.1600    3.1700    3.1800    3.1900
3.2000    3.2100    3.2200    3.2300    3.2400    3.2500    3.2600    3.2700
3.2800    3.2900    3.3000    3.3100    3.3200    3.3300    3.3400    3.3500
3.3600    3.3700    3.3800    3.3900    3.4000    3.4100    3.4200    3.4300
3.4400    3.4500    3.4600    3.4700    3.4800    3.4900    3.5000    3.5100
3.5200    3.5300    3.5400    3.5500    3.5600    3.5700    3.5800    3.5900
3.6000    3.6100    3.6200    3.6300    3.6400    3.6500    3.6600    3.6700
3.6800    3.6900    3.7000    3.7100    3.7200    3.7300    3.7400    3.7500
3.7600    3.7700    3.7800    3.7900    3.8000    3.8100    3.8200    3.8300
3.8400    3.8500    3.8600    3.8700    3.8800    3.8900    3.9000    3.9100
3.9200    3.9300    3.9400    3.9500    3.9600    3.9700    3.9800    3.9900
4.0000    4.0100    4.0200    4.0300    4.0400    4.0500    4.0600    4.0700
4.0800    4.0900    4.1000    4.1100    4.1200    4.1300    4.1400    4.1500
4.1600    4.1700    4.1800    4.1900    4.2000    4.2100    4.2200    4.2300
4.2400    4.2500    4.2600    4.2700    4.2800    4.2900    4.3000    4.3100
4.3200    4.3300    4.3400    4.3500    4.3600    4.3700    4.3800    4.3900
4.4000    4.4100    4.4200    4.4300    4.4400    4.4500    4.4600    4.4700
4.4800    4.4900    4.5000    4.5100    4.5200    4.5300    4.5400    4.5500
4.5600    4.5700    4.5800    4.5900    4.6000    4.6100    4.6200    4.6300
4.6400    4.6500    4.6600    4.6700    4.6800    4.6900    4.7000    4.7100
4.7200    4.7300    4.7400    4.7500    4.7600    4.7700    4.7800    4.7900
4.8000    4.8100    4.8200    4.8300    4.8400    4.8500    4.8600    4.8700
4.8800    4.8900    4.9000    4.9100    4.9200    4.9300    4.9400    4.9500
4.9600    4.9700    4.9800    4.9900    5.0000    5.0100    5.0200    5.0300
5.0400    5.0500    5.0600    5.0700    5.0800    5.0900    5.1000    5.1100
5.1200    5.1300    5.1400    5.1500    5.1600    5.1700    5.1800    5.1900
5.2000    5.2100    5.2200    5.2300    5.2400    5.2500    5.2600    5.2700
5.2800    5.2900    5.3000    5.3100    5.3200    5.3300    5.3400    5.3500
5.3600    5.3700    5.3800    5.3900    5.4000    5.4100    5.4200    5.4300
5.4400    5.4500    5.4600    5.4700    5.4800    5.4900    5.5000    5.5100
5.5200    5.5300    5.5400    5.5500    5.5600    5.5700    5.5800    5.5900
5.6000    5.6100    5.6200    5.6300    5.6400    5.6500    5.6600    5.6700
5.6800    5.6900    5.7000    5.7100    5.7200    5.7300    5.7400    5.7500
5.7600    5.7700    5.7800    5.7900    5.8000    5.8100    5.8200    5.8300
5.8400    5.8500    5.8600    5.8700    5.8800    5.8900    5.9000    5.9100
5.9200    5.9300    5.9400    5.9500    5.9600    5.9700    5.9800    5.9900
6.0000    6.0100    6.0200    6.0300    6.0400    6.0500    6.0600    6.0700
6.0800    6.0900    6.1000    6.1100    6.1200    6.1300    6.1400    6.1500
6.1600    6.1700    6.1800    6.1900    6.2000    6.2100    6.2200    6.2300
6.2400    6.2500    6.2600    6.2700    6.2800    6.2900    6.3000    6.3100
6.3200    6.3300    6.3400    6.3500    6.3600    6.3700    6.3800    6.3900
6.4000    6.4100    6.4200    6.4300    6.4400    6.4500    6.4600    6.4700
6.4800    6.4900    6.5000    6.5100    6.5200    6.5300    6.5400    6.5500
6.5600    6.5700    6.5800    6.5900    6.6000    6.6100    6.6200    6.6300
6.6400    6.6500    6.6600    6.6700    6.6800    6.6900    6.7000    6.7100
6.7200    6.7300    6.7400    6.7500    6.7600    6.7700    6.7800    6.7900
6.8000    6.8100    6.8200    6.8300    6.8400    6.8500    6.8600    6.8700
6.8800    6.8900    6.9000    6.9100    6.9200    6.9300    6.9400    6.9500
6.9600    6.9700    6.9800    6.9900    7.0000    7.0100    7.0200    7.0300
7.0400    7.0500    7.0600    7.0700    7.0800    7.0900    7.1000    7.1100
7.1200    7.1300    7.1400    7.1500    7.1600    7.1700    7.1800    7.1900
7.2000    7.2100    7.2200    7.2300    7.2400    7.2500    7.2600    7.2700
7.2800    7.2900    7.3000    7.3100    7.3200    7.3300    7.3400    7.3500
7.3600    7.3700    7.3800    7.3900    7.4000    7.4100    7.4200    7.4300
7.4400    7.4500    7.4600    7.4700    7.4800    7.4900    7.5000    7.5100
7.5200    7.5300    7.5400    7.5500    7.5600    7.5700
</PP_R>
<PP_RAB type="real"  size=" 758" columns="8">
0.0100    0.0100    0.0100    0.0100    0.0100    0.0100    0.0100    0.0100
0.0100    0.0100    0.0100    0.0100    0.0100    0.0100    0.0100    0.0100
0.0100    0.0100    0.0100    0.0100    0.0100    0.0100    0.0100    0.0100
0.0100    0.0100    0.0100    0.0100    0.0100    0.0100    0.0100    0.0100
0.0100    0.0100    0.0100    0.0100    0.0100    0.0100    0.0100    0.0100
0.0100    0.0100    0.0100    0.0100    0.0100    0.0100    0.0100    0.0100
0.0100    0.0100    0.0100    0.0100    0.0100    0.0100    0.0100    0.0100
0.0100    0.0100    0.0100    0.0100    0.0100    0.0100    0.0100    0.0100
0.0100    0.0100    0.0100    0.0100    0.0100    0.0100    0.0100    0.0100
0.0100    0.0100    0.0100    0.0100    0.0100    0.0100    0.0100    0.0100
0.0100    0.0100    0.0100    0.0100    0.0100    0.0100    0.0100    0.0100
0.0100    0.0100    0.0100    0.0100    0.0100    0.0100    0.0100    0.0100
0.0100    0.0100    0.0100    0.0100    0.0100    0.0100    0.0100    0.0100
0.0100    0.0100    0.0100    0.0100    0.0100    0.0100    0.0100    0.0100
0.0100    0.0100    0.0100    0.0100    0.0100    0.0100    0.0100    0.0100
0.0100    0.0100    0.0100    0.0100    0.0100    0.0100    0.0100    0.0100
0.0100    0.0100    0.0100    0.0100    0.0100    0.0100    0.0100    0.0100
0.0100    0.0100    0.0100    0.0100    0.0100    0.0100    0.0100    0.0100
0.0100    0.0100    0.0100    0.0100    0.0100    0.0100    0.0100    0.0100
0.0100    0.0100    0.0100    0.0100    0.0100    0.0100    0.0100    0.0100
0.0100    0.0100    0.0100    0.0100    0.0100    0.0100    0.0100    0.0100
0.0100    0.0100    0.0100    0.0100    0.0100    0.0100    0.0100    0.0100
0.0100    0.0100    0.0100    0.0100    0.0100    0.0100    0.0100    0.0100
0.0100    0.0100    0.0100    0.0100    0.0100    0.0100    0.0100    0.0100
0.0100    0.0100    0.0100    0.0100    0.0100    0.0100    0.0100    0.0100
0.0100    0.0100    0.0100    0.0100    0.0100    0.0100    0.0100    0.0100
0.0100    0.0100    0.0100    0.0100    0.0100    0.0100    0.0100    0.0100
0.0100    0.0100    0.0100    0.0100    0.0100    0.0100    0.0100    0.0100
0.0100    0.0100    0.0100    0.0100    0.0100    0.0100    0.0100    0.0100
0.0100    0.0100    0.0100    0.0100    0.0100    0.0100    0.0100    0.0100
0.0100    0.0100    0.0100    0.0100    0.0100    0.0100    0.0100    0.0100
0.0100    0.0100    0.0100    0.0100    0.0100    0.0100    0.0100    0.0100
0.0100    0.0100    0.0100    0.0100    0.0100    0.0100    0.0100    0.0100
0.0100    0.0100    0.0100    0.0100    0.0100    0.0100    0.0100    0.0100
0.0100    0.0100    0.0100    0.0100    0.0100    0.0100    0.0100    0.0100
0.0100    0.0100    0.0100    0.0100    0.0100    0.0100    0.0100    0.0100
0.0100    0.0100    0.0100    0.0100    0.0100    0.0100    0.0100    0.0100
0.0100    0.0100    0.0100    0.0100    0.0100    0.0100    0.0100    0.0100
0.0100    0.0100    0.0100    0.0100    0.0100    0.0100    0.0100    0.0100
0.0100    0.0100    0.0100    0.0100    0.0100    0.0100    0.0100    0.0100
0.0100    0.0100    0.0100    0.0100    0.0100    0.0100    0.0100    0.0100
0.0100    0.0100    0.0100    0.0100    0.0100    0.0100    0.0100    0.0100
0.0100    0.0100    0.0100    0.0100    0.0100    0.0100    0.0100    0.0100
0.0100    0.0100    0.0100    0.0100    0.0100    0.0100    0.0100    0.0100
0.0100    0.0100    0.0100    0.0100    0.0100    0.0100    0.0100    0.0100
0.0100    0.0100    0.0100    0.0100    0.0100    0.0100    0.0100    0.0100
0.0100    0.0100    0.0100    0.0100    0.0100    0.0100    0.0100    0.0100
0.0100    0.0100    0.0100    0.0100    0.0100    0.0100    0.0100    0.0100
0.0100    0.0100    0.0100    0.0100    0.0100    0.0100    0.0100    0.0100
0.0100    0.0100    0.0100    0.0100    0.0100    0.0100    0.0100    0.0100
0.0100    0.0100    0.0100    0.0100    0.0100    0.0100    0.0100    0.0100
0.0100    0.0100    0.0100    0.0100    0.0100    0.0100    0.0100    0.0100
0.0100    0.0100    0.0100    0.0100    0.0100    0.0100    0.0100    0.0100
0.0100    0.0100    0.0100    0.0100    0.0100    0.0100    0.0100    0.0100
0.0100    0.0100    0.0100    0.0100    0.0100    0.0100    0.0100    0.0100
0.0100    0.0100    0.0100    0.0100    0.0100    0.0100    0.0100    0.0100
0.0100    0.0100    0.0100    0.0100    0.0100    0.0100    0.0100    0.0100
0.0100    0.0100    0.0100    0.0100    0.0100    0.0100    0.0100    0.0100
0.0100    0.0100    0.0100    0.0100    0.0100    0.0100    0.0100    0.0100
0.0100    0.0100    0.0100    0.0100    0.0100    0.0100    0.0100    0.0100
0.0100    0.0100    0.0100    0.0100    0.0100    0.0100    0.0100    0.0100
0.0100    0.0100    0.0100    0.0100    0.0100    0.0100    0.0100    0.0100
0.0100    0.0100    0.0100    0.0100    0.0100    0.0100    0.0100    0.0100
0.0100    0.0100    0.0100    0.0100    0.0100    0.0100    0.0100    0.0100
0.0100    0.0100    0.0100    0.0100    0.0100    0.0100    0.0100    0.0100
0.0100    0.0100    0.0100    0.0100    0.0100    0.0100    0.0100    0.0100
0.0100    0.0100    0.0100    0.0100    0.0100    0.0100    0.0100    0.0100
0.0100    0.0100    0.0100    0.0100    0.0100    0.0100    0.0100    0.0100
0.0100    0.0100    0.0100    0.0100    0.0100    0.0100    0.0100    0.0100
0.0100    0.0100    0.0100    0.0100    0.0100    0.0100    0.0100    0.0100
0.0100    0.0100    0.0100    0.0100    0.0100    0.0100    0.0100    0.0100
0.0100    0.0100    0.0100    0.0100    0.0100    0.0100    0.0100    0.0100
0.0100    0.0100    0.0100    0.0100    0.0100    0.0100    0.0100    0.0100
0.0100    0.0100    0.0100    0.0100    0.0100    0.0100    0.0100    0.0100
0.0100    0.0100    0.0100    0.0100    0.0100    0.0100    0.0100    0.0100
0.0100    0.0100    0.0100    0.0100    0.0100    0.0100    0.0100    0.0100
0.0100    0.0100    0.0100    0.0100    0.0100    0.0100    0.0100    0.0100
0.0100    0.0100    0.0100    0.0100    0.0100    0.0100    0.0100    0.0100
0.0100    0.0100    0.0100    0.0100    0.0100    0.0100    0.0100    0.0100
0.0100    0.0100    0.0100    0.0100    0.0100    0.0100    0.0100    0.0100
0.0100    0.0100    0.0100    0.0100    0.0100    0.0100    0.0100    0.0100
0.0100    0.0100    0.0100    0.0100    0.0100    0.0100    0.0100    0.0100
0.0100    0.0100    0.0100    0.0100    0.0100    0.0100    0.0100    0.0100
0.0100    0.0100    0.0100    0.0100    0.0100    0.0100    0.0100    0.0100
0.0100    0.0100    0.0100    0.0100    0.0100    0.0100    0.0100    0.0100
0.0100    0.0100    0.0100    0.0100    0.0100    0.0100    0.0100    0.0100
0.0100    0.0100    0.0100    0.0100    0.0100    0.0100    0.0100    0.0100
0.0100    0.0100    0.0100    0.0100    0.0100    0.0100    0.0100    0.0100
0.0100    0.0100    0.0100    0.0100    0.0100    0.0100    0.0100    0.0100
0.0100    0.0100    0.0100    0.0100    0.0100    0.0100    0.0100    0.0100
0.0100    0.0100    0.0100    0.0100    0.0100    0.0100    0.0100    0.0100
0.0100    0.0100    0.0100    0.0100    0.0100    0.0100    0.0100    0.0100
0.0100    0.0100    0.0100    0.0100    0.0100    0.0100    0.0100    0.0100
0.0100    0.0100    0.0100    0.0100    0.0100    0.0100    0.0100    0.0100
0.0100    0.0100    0.0100    0.0100    0.0100    0.0100
</PP_RAB>
</PP_MESH>
<PP_LOCAL type="real"  size=" 758" columns="4">
-2.6964393808E+01   -2.6975490908E+01   -2.7004177969E+01   -2.7043900546E+01
-2.7085654925E+01   -2.7121243312E+01   -2.7144877639E+01   -2.7153542160E+01
-2.7146525018E+01   -2.7124646474E+01   -2.7089538799E+01   -2.7043122104E+01
-2.6987285020E+01   -2.6923723259E+01   -2.6853880616E+01   -2.6778947793E+01
-2.6699888883E+01   -2.6617477470E+01   -2.6532332714E+01   -2.6444951015E+01
-2.6355731829E+01   -2.6264997726E+01   -2.6173009439E+01   -2.6079976869E+01
-2.5986066938E+01   -2.5891409090E+01   -2.5796099050E+01   -2.5700201342E+01
-2.5603750926E+01   -2.5506754281E+01   -2.5409190154E+01   -2.5311010232E+01
-2.5212139921E+01   -2.5112479442E+01   -2.5011905434E+01   -2.4910273213E+01
-2.4807419826E+01   -2.4703167959E+01   -2.4597330701E+01   -2.4489717075E+01
-2.4380138159E+01   -2.4268413538E+01   -2.4154377751E+01   -2.4037886374E+01
-2.3918821353E+01   -2.3797095270E+01   -2.3672654258E+01   -2.3545479428E+01
-2.3415586749E+01   -2.3283025481E+01   -2.3147875337E+01   -2.3010242644E+01
-2.2870255838E+01   -2.2728060593E+01   -2.2583814937E+01   -2.2437684577E+01
-2.2289838688E+01   -2.2140446266E+01   -2.1989673152E+01   -2.1837679726E+01
-2.1684619253E+01   -2.1530636815E+01   -2.1375868748E+01   -2.1220442496E+01
-2.1064476775E+01   -2.0908081984E+01   -2.0751360763E+01   -2.0594408643E+01
-2.0437314741E+01   -2.0280162447E+01   -2.0123030082E+01   -1.9965991509E+01
-1.9809116676E+01   -1.9652472091E+01   -1.9496121235E+01   -1.9340124890E+01
-1.9184541424E+01   -1.9029427000E+01   -1.8874835742E+01   -1.8720819858E+01
-1.8567429719E+01   -1.8414713909E+01   -1.8262719255E+01   -1.8111490827E+01
-1.7961071933E+01   -1.7811504102E+01   -1.7662827055E+01   -1.7515078681E+01
-1.7368295010E+01   -1.7222510192E+01   -1.7077756478E+01   -1.6934064209E+01
-1.6791461818E+01   -1.6649975834E+01   -1.6509630906E+01   -1.6370449829E+01
-1.6232453588E+01   -1.6095661409E+01   -1.5960090824E+01   -1.5825757739E+01
-1.5692676522E+01   -1.5560860084E+01   -1.5430319977E+01   -1.5301066490E+01
-1.5173108749E+01   -1.5046454815E+01   -1.4921111779E+01   -1.4797085852E+01
-1.4674382450E+01   -1.4553006269E+01   -1.4432961346E+01   -1.4314251109E+01
-1.4196878413E+01   -1.4080845563E+01   -1.3966154315E+01   -1.3852805867E+01
-1.3740800830E+01   -1.3630139186E+01   -1.3520820228E+01   -1.3412842489E+01
-1.3306203658E+01   -1.3200900485E+01   -1.3096928681E+01   -1.2994282803E+01
-1.2892956146E+01   -1.2792940625E+01   -1.2694226657E+01   -1.2596803075E+01
-1.2500656952E+01   -1.2405773522E+01   -1.2312136141E+01   -1.2219727102E+01
-1.2128528425E+01   -1.2038524076E+01   -1.1949696767E+01   -1.1862024953E+01
-1.1775488571E+01   -1.1690069542E+01   -1.1605750073E+01   -1.1522513221E+01
-1.1440342834E+01   -1.1359223513E+01   -1.1279140600E+01   -1.1200080163E+01
-1.1122028971E+01   -1.1044974475E+01   -1.0968904773E+01   -1.0893808573E+01
-1.0819675143E+01   -1.0746494257E+01   -1.0674256121E+01   -1.0602951294E+01
-1.0532570599E+01   -1.0463105016E+01   -1.0394545571E+01   -1.0326883218E+01
-1.0260108708E+01   -1.0194212463E+01   -1.0129184438E+01   -1.0065014002E+01
-1.0001689807E+01   -9.9391996807E+00   -9.8775305280E+00   -9.8166682513E+00
-9.7565976933E+00   -9.6973025807E+00   -9.6387656074E+00   -9.5809684545E+00
-9.5238915445E+00   -9.4675144429E+00   -9.4118160136E+00   -9.3567753029E+00
-9.3023753061E+00   -9.2486039052E+00   -9.1954503993E+00   -9.1429042030E+00
-9.0909552175E+00   -9.0395932996E+00   -8.9888084514E+00   -8.9385910419E+00
-8.8889316115E+00   -8.8398209115E+00   -8.7912498979E+00   -8.7432097229E+00
-8.6956917313E+00   -8.6486874551E+00   -8.6021886085E+00   -8.5561870828E+00
-8.5106749418E+00   -8.4656444176E+00   -8.4210879055E+00   -8.3769979601E+00
-8.3333672914E+00   -8.2901887601E+00   -8.2474553744E+00   -8.2051602859E+00
-8.1632967858E+00   -8.1218583016E+00   -8.0808383937E+00   -8.0402307518E+00
-8.0000291920E+00   -7.9602276531E+00   -7.9208201943E+00   -7.8818009916E+00
-7.8431643355E+00   -7.8049046278E+00   -7.7670163789E+00   -7.7294942050E+00
-7.6923328262E+00   -7.6555270638E+00   -7.6190718375E+00   -7.5829621635E+00
-7.5471931518E+00   -7.5117600042E+00   -7.4766580124E+00   -7.4418825556E+00
-7.4074290986E+00   -7.3732931898E+00   -7.3394704592E+00   -7.3059566168E+00
-7.2727474503E+00   -7.2398388239E+00   -7.2072266763E+00   -7.1749070189E+00
-7.1428759344E+00   -7.1111295753E+00   -7.0796641618E+00   -7.0484759812E+00
-7.0175613855E+00   -6.9869167907E+00   -6.9565386750E+00   -6.9264235776E+00
-6.8965680974E+00   -6.8669688917E+00   -6.8376226749E+00   -6.8085262173E+00
-6.7796763439E+00   -6.7510699335E+00   -6.7227039172E+00   -6.6945752774E+00
-6.6666810469E+00   -6.6390183077E+00   -6.6115841901E+00   -6.5843758715E+00
-6.5573905756E+00   -6.5306255717E+00   -6.5040781731E+00   -6.4777457368E+00
-6.4516256624E+00   -6.4257153914E+00   -6.4000124060E+00   -6.3745142287E+00
-6.3492184213E+00   -6.3241225840E+00   -6.2992243550E+00   -6.2745214095E+00
-6.2500114589E+00   -6.2256922502E+00   -6.2015615656E+00   -6.1776172214E+00
-6.1538570673E+00   -6.1302789862E+00   -6.1068808933E+00   -6.0836607354E+00
-6.0606164905E+00   -6.0377461670E+00   -6.0150478035E+00   -5.9925194676E+00
-5.9701592562E+00   -5.9479652940E+00   -5.9259357340E+00   -5.9040687560E+00
-5.8823625668E+00   -5.8608153995E+00   -5.8394255129E+00   -5.8181911912E+00
-5.7971107434E+00   -5.7761825029E+00   -5.7554048272E+00   -5.7347760973E+00
-5.7142947172E+00   -5.6939591138E+00   -5.6737677362E+00   -5.6537190555E+00
-5.6338115642E+00   -5.6140437762E+00   -5.5944142259E+00   -5.5749214683E+00
-5.5555640784E+00   -5.5363406511E+00   -5.5172498004E+00   -5.4982901595E+00
-5.4794603803E+00   -5.4607591332E+00   -5.4421851065E+00   -5.4237370065E+00
-5.4054135568E+00   -5.3872134983E+00   -5.3691355887E+00   -5.3511786025E+00
-5.3333413304E+00   -5.3156225791E+00   -5.2980211713E+00   -5.2805359451E+00
-5.2631657540E+00   -5.2459094665E+00   -5.2287659657E+00   -5.2117341496E+00
-5.1948129302E+00   -5.1780012337E+00   -5.1612980003E+00   -5.1447021837E+00
-5.1282127509E+00   -5.1118286822E+00   -5.0955489711E+00   -5.0793726235E+00
-5.0632986581E+00   -5.0473261061E+00   -5.0314540106E+00   -5.0156814270E+00
-5.0000074222E+00   -4.9844310749E+00   -4.9689514752E+00   -4.9535677246E+00
-4.9382789356E+00   -4.9230842315E+00   -4.9079827465E+00   -4.8929736255E+00
-4.8780560234E+00   -4.8632291060E+00   -4.8484920486E+00   -4.8338440369E+00
-4.8192842662E+00   -4.8048119415E+00   -4.7904262774E+00   -4.7761264979E+00
-4.7619118359E+00   -4.7477815339E+00   -4.7337348431E+00   -4.7197710235E+00
-4.7058893438E+00   -4.6920890815E+00   -4.6783695224E+00   -4.6647299605E+00
-4.6511696983E+00   -4.6376880461E+00   -4.6242843224E+00   -4.6109578534E+00
-4.5977079731E+00   -4.5845340232E+00   -4.5714353527E+00   -4.5584113184E+00
-4.5454612841E+00   -4.5325846208E+00   -4.5197807069E+00   -4.5070489274E+00
-4.4943886746E+00   -4.4817993473E+00   -4.4692803513E+00   -4.4568310987E+00
-4.4444510084E+00   -4.4321395057E+00   -4.4198960220E+00   -4.4077199954E+00
-4.3956108697E+00   -4.3835680952E+00   -4.3715911279E+00   -4.3596794300E+00
-4.3478324694E+00   -4.3360497196E+00   -4.3243306602E+00   -4.3126747760E+00
-4.3010815577E+00   -4.2895505011E+00   -4.2780811077E+00   -4.2666728842E+00
-4.2553253425E+00   -4.2440379997E+00   -4.2328103781E+00   -4.2216420049E+00
-4.2105324123E+00   -4.1994811377E+00   -4.1884877229E+00   -4.1775517147E+00
-4.1666726647E+00   -4.1558501290E+00   -4.1450836684E+00   -4.1343728482E+00
-4.1237172383E+00   -4.1131164127E+00   -4.1025699502E+00   -4.0920774335E+00
-4.0816384499E+00   -4.0712525907E+00   -4.0609194514E+00   -4.0506386317E+00
-4.0404097350E+00   -4.0302323691E+00   -4.0201061456E+00   -4.0100306800E+00
-4.0000055915E+00   -3.9900305032E+00   -3.9801050421E+00   -3.9702288387E+00
-3.9604015273E+00   -3.9506227456E+00   -3.9408921350E+00   -3.9312093406E+00
-3.9215740108E+00   -3.9119857973E+00   -3.9024443554E+00   -3.8929493438E+00
-3.8835004243E+00   -3.8740972622E+00   -3.8647395258E+00   -3.8554268869E+00
-3.8461590201E+00   -3.8369356034E+00   -3.8277563177E+00   -3.8186208472E+00
-3.8095288787E+00   -3.8004801024E+00   -3.7914742112E+00   -3.7825109010E+00
-3.7735898704E+00   -3.7647108210E+00   -3.7558734572E+00   -3.7470774861E+00
-3.7383226176E+00   -3.7296085642E+00   -3.7209350412E+00   -3.7123017666E+00
-3.7037084606E+00   -3.6951548466E+00   -3.6866406501E+00   -3.6781655992E+00
-3.6697294246E+00   -3.6613318595E+00   -3.6529726393E+00   -3.6446515021E+00
-3.6363681882E+00   -3.6281224403E+00   -3.6199140033E+00   -3.6117426248E+00
-3.6036080542E+00   -3.5955100434E+00   -3.5874483465E+00   -3.5794227198E+00
-3.5714329218E+00   -3.5634787130E+00   -3.5555598562E+00   -3.5476761162E+00
-3.5398272601E+00   -3.5320130566E+00   -3.5242332770E+00   -3.5164876941E+00
-3.5087760831E+00   -3.5010982209E+00   -3.4934538865E+00   -3.4858428606E+00
-3.4782649262E+00   -3.4707198678E+00   -3.4632074720E+00   -3.4557275272E+00
-3.4482798234E+00   -3.4408641528E+00   -3.4334803091E+00   -3.4261280878E+00
-3.4188072863E+00   -3.4115177035E+00   -3.4042591402E+00   -3.3970313989E+00
-3.3898342836E+00   -3.3826676000E+00   -3.3755311556E+00   -3.3684247594E+00
-3.3613482220E+00   -3.3543013556E+00   -3.3472839741E+00   -3.3402958926E+00
-3.3333369282E+00   -3.3264068992E+00   -3.3195056255E+00   -3.3126329285E+00
-3.3057886311E+00   -3.2989725576E+00   -3.2921845338E+00   -3.2854243869E+00
-3.2786919456E+00   -3.2719870398E+00   -3.2653095009E+00   -3.2586591619E+00
-3.2520358568E+00   -3.2454394211E+00   -3.2388696916E+00   -3.2323265065E+00
-3.2258097052E+00   -3.2193191285E+00   -3.2128546184E+00   -3.2064160182E+00
-3.2000031724E+00   -3.1936159268E+00   -3.1872541284E+00   -3.1809176255E+00
-3.1746062674E+00   -3.1683199048E+00   -3.1620583896E+00   -3.1558215746E+00
-3.1496093141E+00   -3.1434214633E+00   -3.1372578785E+00   -3.1311184174E+00
-3.1250029386E+00   -3.1189113019E+00   -3.1128433681E+00   -3.1067989991E+00
-3.1007780579E+00   -3.0947804085E+00   -3.0888059162E+00   -3.0828544469E+00
-3.0769258680E+00   -3.0710200476E+00   -3.0651368549E+00   -3.0592761600E+00
-3.0534378343E+00   -3.0476217498E+00   -3.0418277798E+00   -3.0360557983E+00
-3.0303056804E+00   -3.0245773021E+00   -3.0188705403E+00   -3.0131852730E+00
-3.0075213789E+00   -3.0018787378E+00   -2.9962572301E+00   -2.9906567375E+00
-2.9850771423E+00   -2.9795183277E+00   -2.9739801779E+00   -2.9684625779E+00
-2.9629654134E+00   -2.9574885712E+00   -2.9520319388E+00   -2.9465954046E+00
-2.9411788576E+00   -2.9357821879E+00   -2.9304052863E+00   -2.9250480443E+00
-2.9197103543E+00   -2.9143921095E+00   -2.9090932038E+00   -2.9038135319E+00
-2.8985529893E+00   -2.8933114723E+00   -2.8880888776E+00   -2.8828851032E+00
-2.8777000475E+00   -2.8725336096E+00   -2.8673856894E+00   -2.8622561875E+00
-2.8571450054E+00   -2.8520520450E+00   -2.8469772090E+00   -2.8419204009E+00
-2.8368815248E+00   -2.8318604854E+00   -2.8268571883E+00   -2.8218715396E+00
-2.8169034459E+00   -2.8119528149E+00   -2.8070195545E+00   -2.8021035735E+00
-2.7972047813E+00   -2.7923230879E+00   -2.7874584040E+00   -2.7826106407E+00
-2.7777797099E+00   -2.7729655242E+00   -2.7681679966E+00   -2.7633870408E+00
-2.7586225711E+00   -2.7538745024E+00   -2.7491427501E+00   -2.7444272302E+00
-2.7397278595E+00   -2.7350445550E+00   -2.7303772345E+00   -2.7257258163E+00
-2.7210902193E+00   -2.7164703629E+00   -2.7118661671E+00   -2.7072775524E+00
-2.7027044397E+00   -2.6981467508E+00   -2.6936044076E+00   -2.6890773329E+00
-2.6845654497E+00   -2.6800686818E+00   -2.6755869532E+00   -2.6711201887E+00
-2.6666683135E+00   -2.6622312531E+00   -2.6578089339E+00   -2.6534012825E+00
-2.6490082259E+00   -2.6446296919E+00   -2.6402656085E+00   -2.6359159044E+00
-2.6315805085E+00   -2.6272593504E+00   -2.6229523601E+00   -2.6186594680E+00
-2.6143806049E+00   -2.6101157023E+00   -2.6058646920E+00   -2.6016275061E+00
-2.5974040773E+00   -2.5931943387E+00   -2.5889982240E+00   -2.5848156670E+00
-2.5806466021E+00   -2.5764909642E+00   -2.5723486886E+00   -2.5682197108E+00
-2.5641039669E+00   -2.5600013934E+00   -2.5559119273E+00   -2.5518355057E+00
-2.5477720664E+00   -2.5437215474E+00   -2.5396838873E+00   -2.5356590248E+00
-2.5316468993E+00   -2.5276474504E+00   -2.5236606180E+00   -2.5196863426E+00
-2.5157245650E+00   -2.5117752263E+00   -2.5078382679E+00   -2.5039136319E+00
-2.5000012604E+00   -2.4961010959E+00   -2.4922130816E+00   -2.4883371607E+00
-2.4844732767E+00   -2.4806213739E+00   -2.4767813965E+00   -2.4729532892E+00
-2.4691369971E+00   -2.4653324656E+00   -2.4615396403E+00   -2.4577584673E+00
-2.4539888931E+00   -2.4502308643E+00   -2.4464843280E+00   -2.4427492315E+00
-2.4390255226E+00   -2.4353131491E+00   -2.4316120595E+00   -2.4279222024E+00
-2.4242435266E+00   -2.4205759816E+00   -2.4169195167E+00   -2.4132740820E+00
-2.4096396275E+00   -2.4060161037E+00   -2.4024034614E+00   -2.3988016516E+00
-2.3952106257E+00   -2.3916303354E+00   -2.3880607325E+00   -2.3845017693E+00
-2.3809533982E+00   -2.3774155721E+00   -2.3738882441E+00   -2.3703713674E+00
-2.3668648957E+00   -2.3633687829E+00   -2.3598829831E+00   -2.3564074508E+00